LAMMPS (22 Jul 2025 - Development - patch_22Jul2025-28-geac4a44fc3)
OMP_NUM_THREADS environment is not set. Defaulting to 1 thread.
  using 1 OpenMP thread(s) per MPI task
Total wall time: 0:00:05
