LAMMPS data file via write_data, version 24 Dec 2020, timestep = 0

687 atoms
1 atom types

0.07973089355859919 19.9074531064414 xlo xhi
0.07973089355859919 19.9074531064414 ylo yhi
0.07973089355859919 19.9074531064414 zlo zhi

Masses

1 55.85

Atoms # atomic

1 1 0.08438985257173218 0.08290721202523878 0.07977382728708172 0 0 0
2 1 1.4959216525600714 1.4923026985761325 1.4908940969659343 0 0 0
3 1 2.9145213015618703 19.907308341351666 19.90621033233763 0 -1 -1
4 1 4.3273875053785265 1.4918935029140437 1.4927371335985864 0 0 0
5 1 5.74437094532305 0.07992085665756528 0.0801023760539913 0 0 0
6 1 7.1593976843686455 1.4934222376524848 1.4940652695953418 0 0 0
7 1 8.574947280593848 0.08161664944415331 0.08153094697103937 0 0 0
8 1 9.991653885938058 1.4949007194486854 1.4944449585270159 0 0 0
9 1 11.407278403825146 0.08315063391992601 0.08210390289743437 0 0 0
10 1 12.824740534413452 1.4960110493105352 1.4941916741686663 0 0 0
11 1 14.241589107622065 0.08449228923044763 0.08218998789907263 0 0 0
12 1 15.659571931284443 1.496188776148181 1.4932244187234134 0 0 0
13 1 17.077756335248765 0.08503963496532205 0.08170828663995851 0 0 0
14 1 18.49540711615306 1.4945036860787608 1.4913531605151251 0 0 0
15 1 0.07980865748388435 2.9098920929022927 19.90317346497983 0 0 -1
16 1 1.492566248137953 4.322264757946644 1.4898571812136805 0 0 0
17 1 2.9107256754414355 2.908025790906598 19.904432622909404 0 0 -1
18 1 4.323892573388206 4.3218718033087065 1.4915150275299074 0 0 0
19 1 5.74367311605638 2.9094189094359826 19.906258087829514 0 0 -1
20 1 7.159078738518596 4.325232016080714 1.4941756848399668 0 0 0
21 1 8.57605609831749 2.9113336079850125 19.906914547589494 0 0 -1
22 1 9.992092588785491 4.326984870446243 1.494461198604782 0 0 0
23 1 11.408234303353597 2.912410766610023 19.90679701917628 0 0 -1
24 1 12.824938860493631 4.327050906439008 1.4939774659618024 0 0 0
25 1 14.241297254220024 2.912470947071332 19.906173831227242 0 0 -1
26 1 15.660981639119472 4.324452251140215 1.4911816359913257 0 0 0
27 1 17.076069570989418 2.9111273650981526 19.904580883876292 0 0 -1
28 1 18.49350741354653 4.324203656580223 1.4898733003801465 0 0 0
29 1 19.9068405861288 5.740566067014633 19.904438179529805 -1 0 -1
30 1 1.492884375763614 7.157148328192136 1.4914646979831871 0 0 0
31 1 2.9086370575711076 5.74001543460381 19.90603390479859 0 0 -1
32 1 4.323708207469576 7.157196297300789 1.4934640361402467 0 0 0
33 1 5.741673500771101 5.740974517812566 0.08023066541515582 0 0 0
34 1 7.157177677049526 7.1578749869726455 1.4960464331842478 0 0 0
35 1 8.575910167188527 5.7438636074035445 0.08081740557147725 0 0 0
36 1 9.992002674948921 7.1607150396063854 1.4976009854822419 0 0 0
37 1 11.40832702291175 5.744829348980474 0.08032833818904993 0 0 0
38 1 12.826676444019839 7.159055092718429 1.4955084923815039 0 0 0
39 1 14.242099779297883 5.743295052839969 19.906776502882423 0 0 -1
40 1 15.660552893875657 7.15861901025967 1.4925192113501977 0 0 0
41 1 17.07513012994432 5.7426220848779455 19.90478411383399 0 0 -1
42 1 18.49389623594304 7.157610246413918 1.4912385689870327 0 0 0
43 1 0.08046000370302032 8.574516477498088 19.90686564479089 0 0 -1
44 1 1.4943976571268296 9.993444500923347 1.493336913600369 0 0 0
45 1 2.908997323827455 8.575063533150987 0.08020961221509616 0 0 0
46 1 4.325270256315799 9.993444165894191 1.495307255504758 0 0 0
47 1 5.741664887899499 8.57546833310625 0.08177977843613354 0 0 0
48 1 7.159437955618152 9.991939716295018 1.4984259663476907 0 0 0
49 1 8.575452156573428 8.57660346216457 0.08128729254590021 0 0 0
50 1 9.99283916670176 9.991284759572759 1.4994428403400277 0 0 0
51 1 11.409140682583304 8.577514322761898 0.08092351699727243 0 0 0
52 1 12.826095149912673 9.993433855743737 1.4975932517822708 0 0 0
53 1 14.241750748154317 8.577257685993358 0.080627784341141 0 0 0
54 1 15.661147957397183 9.993835380877758 1.4943081898398927 0 0 0
55 1 17.076646600210907 8.575219443985004 0.0800162859149662 0 0 0
56 1 18.495071069199753 9.993093983960232 1.4930262812648227 0 0 0
57 1 0.08210873382464484 11.410380878254035 0.08124276133257002 0 0 0
58 1 1.4964648453372837 12.829201193446545 1.4951435403127766 0 0 0
59 1 2.9102599727544813 11.410846120897135 0.08161447540490543 0 0 0
60 1 4.327760144040932 12.827717489445517 1.4971039739220866 0 0 0
61 1 5.742781806287562 11.409743992513107 0.08304427575804589 0 0 0
62 1 7.161488891684447 12.824746651249303 1.49932244196602 0 0 0
63 1 8.57637427180773 11.409134116217354 0.08247252961273382 0 0 0
64 1 9.99360996189047 12.823833792196723 1.4999736727287696 0 0 0
65 1 11.40984397678635 11.410445657241462 0.08223080633016534 0 0 0
66 1 12.826277069917863 12.827393637046569 1.4985041197753504 0 0 0
67 1 14.243661973703496 11.411093261661577 0.08211809002184194 0 0 0
68 1 15.661596529106784 12.829211222798717 1.4958558849806125 0 0 0
69 1 17.07867845877906 11.410308473964804 0.08236984948186801 0 0 0
70 1 18.496150243621152 12.829382317961146 1.4946183152708337 0 0 0
71 1 0.08386449369087202 14.246635474766641 0.08291757233977588 0 0 0
72 1 1.4988592709927793 15.66290770045416 1.4967384332774565 0 0 0
73 1 2.9120314238918454 14.2458509448516 0.0828902468837486 0 0 0
74 1 4.330122284481834 15.659896503975965 1.4987772438478408 0 0 0
75 1 5.7441067768072775 14.243855037976537 0.08423947902800046 0 0 0
76 1 7.1619930119866515 15.65762348868899 1.4997909659392588 0 0 0
77 1 8.577145038969894 14.241804901416725 0.08419396035488157 0 0 0
78 1 9.99246848467717 15.6586050681922 1.499729477586222 0 0 0
79 1 11.409107556312236 14.244177755126579 0.08387326110340988 0 0 0
80 1 12.82505781842294 15.66099211464274 1.4990457794788044 0 0 0
81 1 14.245345250306707 14.247711524290676 0.08473298984469199 0 0 0
82 1 15.661589309331834 15.664173076449616 1.4975372925548474 0 0 0
83 1 17.08025138380792 14.247316042095557 0.08449826107490056 0 0 0
84 1 18.49681036102914 15.664412418927398 1.4961858870854168 0 0 0
85 1 0.08530417580224042 17.081254735643675 0.0833921352680159 0 0 0
86 1 1.5002063322541448 18.49316792802164 1.4961521288602586 0 0 0
87 1 2.9140990138652616 17.07844472919392 0.08264424778965843 0 0 0
88 1 4.3305352886324835 18.49073434459271 1.4972515386521759 0 0 0
89 1 5.74556133879473 17.076077531485105 0.08325517931725183 0 0 0
90 1 7.160390959290918 18.491164890341835 1.4983273723822668 0 0 0
91 1 8.5755470257402 17.077021877586148 0.08474657407541623 0 0 0
92 1 9.991322385393941 18.49263910291006 1.498582648933834 0 0 0
93 1 11.407587853393714 17.0790845172435 0.08533514055943751 0 0 0
94 1 12.824380620625094 18.494251839690577 1.4980426506775026 0 0 0
95 1 14.243194169628493 17.081459315703746 0.08570960068461939 0 0 0
96 1 15.659817464342616 18.495917011533052 1.4971236551945741 0 0 0
97 1 17.080650624305186 17.08330733356628 0.08569979899187374 0 0 0
98 1 18.496008798757224 18.49577491647986 1.4959781202037716 0 0 0
99 1 0.08396429655223757 0.08029223196845608 2.908135275218734 0 0 0
100 1 1.4938997588427536 1.4901407785127374 4.325195181953434 0 0 0
101 1 2.9132577943395317 19.904890635043948 2.910546023362224 0 -1 0
102 1 4.324780404819458 1.4893309366049765 4.325092211152484 0 0 0
103 1 5.744310277371507 19.905538905465463 2.91201608814621 0 -1 0
104 1 7.159329554023806 1.4923762822713382 4.327465175088029 0 0 0
105 1 8.575378327232668 19.907242228069904 2.912293330861569 0 -1 0
106 1 9.992079167774344 1.4940323154541182 4.32780509332932 0 0 0
107 1 11.407669594748045 0.0809722085379741 2.9116837672570965 0 0 0
108 1 12.825355631671243 1.4949942505930913 4.32672618567213 0 0 0
109 1 14.24181860769848 0.08213640126023357 2.9102663633557215 0 0 0
110 1 15.66218140228525 1.4935871526413644 4.323707390358664 0 0 0
111 1 17.07860140427355 0.08211430480996863 2.908127220023502 0 0 0
112 1 18.495738281200268 1.4926239532424466 4.324282855102647 0 0 0
113 1 0.08015268673948606 2.9072320255896993 2.9069792103115333 0 0 0
114 1 1.4902780039022718 4.320158613017895 4.322460684154333 0 0 0
115 1 2.9033172201310724 2.9003679155935638 2.902222345868326 0 0 0
116 1 4.305021851883939 4.3040084438815445 4.306504206692221 0 0 0
117 1 5.740942854160609 2.9033524096230856 2.905376820873445 0 0 0
118 1 7.156824951103354 4.313205129440133 4.315193883404861 0 0 0
119 1 8.575584880536326 2.9055910013837747 2.9066788631721034 0 0 0
120 1 9.992518975081005 4.315771550541676 4.316658838704668 0 0 0
121 1 11.408920993928252 2.9069626556328174 2.9068952783648037 0 0 0
122 1 12.82640428403956 4.317449464115425 4.317542575231487 0 0 0
123 1 14.243539909200303 2.9071293346470184 2.906098041870117 0 0 0
124 1 15.677039081488074 4.309187863890403 4.309115239384106 0 0 0
125 1 17.08289782858366 2.9040541325168903 2.9027771462068293 0 0 0
126 1 18.49482736173821 4.322231463470104 4.322909483632011 0 0 0
127 1 0.07981513150999794 5.739270977915732 2.906458745013447 0 0 0
128 1 1.4914069224163886 7.156483225078401 4.3231804294525 0 0 0
129 1 2.901653808454975 5.736470566686045 2.901895449722546 0 0 0
130 1 4.306189684330061 7.151936280784298 4.309072162185662 0 0 0
131 1 5.735911343816888 5.735416204544091 2.9062535459866803 0 0 0
132 1 7.144785580086026 7.147001480759459 4.318675477933283 0 0 0
133 1 8.575066774484187 5.741461439703951 2.9107784600667213 0 0 0
134 1 9.990909572856333 7.158796651729651 4.331489126410558 0 0 0
135 1 11.408391840043588 5.7425948737009005 2.9108418854978564 0 0 0
136 1 12.837304311729577 7.148915208561754 4.319277527130254 0 0 0
137 1 14.24759228137237 5.737352735915114 2.9057189190905497 0 0 0
138 1 15.675919951240237 7.152926451381331 4.31005478927584 0 0 0
139 1 17.08263407439572 5.738334998704506 2.9022712605496013 0 0 0
140 1 18.49638012738187 7.155450751185051 4.321438560227135 0 0 0
141 1 0.08103699609243493 8.57463185134236 2.9074717871711564 0 0 0
142 1 1.4933261327715779 9.99357743296533 4.32480109053107 0 0 0
143 1 2.9039157661129886 8.576238600901732 2.9046910999213265 0 0 0
144 1 4.313133163933626 9.998437868038987 4.315433972367366 0 0 0
145 1 5.737994278225152 8.574889096487585 2.909161214732293 0 0 0
146 1 7.155179213113915 9.990583288159659 4.329807389838136 0 0 0
147 1 8.572365267207873 8.572626800475707 2.915297726862646 0 0 0
148 1 9.992669041318386 9.984409447832267 4.330046906961628 0 0 0
149 1 11.411868517472678 8.573240603563729 2.914697214578908 0 0 0
150 1 12.83136477012772 9.992152794718901 4.326464105048192 0 0 0
151 1 14.246597598690848 8.575453230401422 2.9078255541879328 0 0 0
152 1 15.674058563356116 9.996952131543553 4.312414749622713 0 0 0
153 1 17.082662211136366 8.575557254225012 2.9035460762265393 0 0 0
154 1 18.49784592842971 9.991740710595872 4.32130599142081 0 0 0
155 1 0.08245190689494714 11.410907622725794 2.908693141441362 0 0 0
156 1 1.495602901024828 12.828421219990986 4.326909531976119 0 0 0
157 1 2.9070209126847364 11.413429683255949 2.9074683964136248 0 0 0
158 1 4.32071561821814 12.832874859629918 4.322399708257111 0 0 0
159 1 5.742686888573135 11.41034149860677 2.911863725027936 0 0 0
160 1 7.162051010261724 12.824493131879931 4.33152158768077 0 0 0
161 1 8.576957191069882 11.406074398629269 2.9174996866406415 0 0 0
162 1 9.994558402229032 12.82093085378018 4.334667111290292 0 0 0
163 1 11.410154531674092 11.407364267441427 2.9170190003807965 0 0 0
164 1 12.829016428947716 12.829584317910415 4.326587574772464 0 0 0
165 1 14.245498494499891 11.41182085444173 2.9099574656500624 0 0 0
166 1 15.67105485159354 12.834877826179556 4.316664484984425 0 0 0
167 1 17.082942284440975 11.413096081785907 2.9049907192196054 0 0 0
168 1 18.498854242941853 12.828564463381216 4.322147778890158 0 0 0
169 1 0.08406519634833143 14.245988279488811 2.9100801733472013 0 0 0
170 1 1.4986733843945719 15.66041084488803 4.3286833228070325 0 0 0
171 1 2.911113024648735 14.246394883029094 2.9108415768718756 0 0 0
172 1 4.330631013679221 15.657173906317201 4.331275354843658 0 0 0
173 1 5.746153228567489 14.241799971848694 2.914582844778933 0 0 0
174 1 7.162762929995809 15.654699632154134 4.332669564452308 0 0 0
175 1 8.578516842171048 14.239339927828885 2.9163311091718582 0 0 0
176 1 9.992297701531383 15.656760406510994 4.330891345302293 0 0 0
177 1 11.40850134672706 14.241711218596851 2.915499834953601 0 0 0
178 1 12.82535496349596 15.660122888933664 4.328107051034772 0 0 0
179 1 14.24461858982219 14.246584960064174 2.911270783192664 0 0 0
180 1 15.665037618180788 15.665370388303716 4.3228028798447875 0 0 0
181 1 17.082166634034266 14.248636310718844 2.9071571573075357 0 0 0
182 1 18.499506698670864 15.664112517643767 4.322703293801615 0 0 0
183 1 0.08526348329025356 17.07863588578345 2.9106913145466993 0 0 0
184 1 1.4986537478740996 18.492074424109624 4.3271616490716225 0 0 0
185 1 2.9152738465031933 17.075416499964213 2.9137265049514376 0 0 0
186 1 4.329846530644717 18.489637239656155 4.329360979454557 0 0 0
187 1 5.746493737106022 17.073283089548106 2.9151912601838315 0 0 0
188 1 7.1601622802605895 18.49105203440773 4.329338862030291 0 0 0
189 1 8.57639408644011 17.074014453573035 2.914961253679057 0 0 0
190 1 9.990675727877525 18.493422482749807 4.3277941242040905 0 0 0
191 1 11.407849868640117 17.07601500495616 2.9138348178227194 0 0 0
192 1 12.824370917740982 18.495478646460768 4.325517877143253 0 0 0
193 1 14.242411500400383 17.078520274264093 2.911819838721053 0 0 0
194 1 15.662626380677969 18.498065254407386 4.321936518597702 0 0 0
195 1 17.079790064880058 17.080552628393797 2.9095444308326637 0 0 0
196 1 18.499142187875385 18.49773096664471 4.321790819261129 0 0 0
197 1 0.08223096578929451 19.906683683438224 5.743490404343954 0 -1 0
198 1 1.4933927849318378 1.4908607886890228 7.161612227278638 0 0 0
199 1 2.912126560626793 19.904199124899044 5.745026994145095 0 -1 0
200 1 4.325246170445902 1.4903957575515334 7.161302476551063 0 0 0
201 1 5.743967306669077 19.90464026675341 5.745562263486703 0 -1 0
202 1 7.157955971320921 1.4930234695415845 7.160512170144816 0 0 0
203 1 8.576328050453727 19.906823893962688 5.746311773824463 0 -1 0
204 1 9.992708146257478 1.4960003040633638 7.161836446061907 0 0 0
205 1 11.408524922070242 0.08056521856292932 5.744955732604467 0 0 0
206 1 12.827515299717756 1.4954394105168236 7.1593781217014625 0 0 0
207 1 14.243806721508818 0.08130798278730501 5.741946795458923 0 0 0
208 1 15.661730875628683 1.494010509530654 7.159282144064738 0 0 0
209 1 17.079389305181124 0.08145847675639467 5.741204825083274 0 0 0
210 1 18.493758986119516 1.492897131973269 7.161220282398959 0 0 0
211 1 19.906738942260752 2.907127969534838 5.743189834634085 -1 0 0
212 1 1.4901925025244012 4.321928485612397 7.160004169194019 0 0 0
213 1 2.9016331139089058 2.8996316499410004 5.739768482426831 0 0 0
214 1 4.304981375214433 4.305592939756991 7.1534313546580846 0 0 0
215 1 5.735398765071029 2.9027907443624446 5.737191215247254 0 0 0
216 1 7.142169528097293 4.313661419613612 7.146216228078728 0 0 0
217 1 8.575261811467964 2.9085842932960615 5.7425687304975925 0 0 0
218 1 9.991136978400368 4.3295476231254995 7.157620106835682 0 0 0
219 1 11.409014515735233 2.9101183018865613 5.742948875072052 0 0 0
220 1 12.837556846754868 4.320072202912235 7.148834258136579 0 0 0
221 1 14.248159327415005 2.9064066965732693 5.737824697724867 0 0 0
222 1 15.675659141904513 4.311774392730761 7.153911204812591 0 0 0
223 1 17.083220741991582 2.903546241188474 5.73968718707589 0 0 0
224 1 18.49253499422307 4.324304365058265 7.16055434703341 0 0 0
225 1 19.90627425070577 5.739362585678291 5.741600640488866 -1 0 0
226 1 1.4912630738192059 7.155993135150565 7.158106558249271 0 0 0
227 1 2.9002513914326635 5.732473294330168 5.734876010203591 0 0 0
228 1 4.304882281568847 7.14180324850001 7.143945193479246 0 0 0
229 1 5.694022284979155 5.696360626979191 5.69831462871678 0 0 0
230 1 7.046551034069402 7.055608261790001 7.058621996299584 0 0 0
231 1 8.580311325676854 5.724361705325836 5.725722125846349 0 0 0
232 1 9.987724605598409 7.184159398364831 7.18048174829674 0 0 0
233 1 11.401548518134923 5.729208371561545 5.729190108956421 0 0 0
234 1 12.919757495540454 7.0730112387146615 7.070592225761382 0 0 0
235 1 14.283149337883433 5.704424862617747 5.703852964798123 0 0 0
236 1 15.670964676479535 7.150815475229514 7.148769069711345 0 0 0
237 1 17.082086166062453 5.73669489423232 5.7369514705945015 0 0 0
238 1 18.492488697746758 7.157016947466787 7.1585130294037675 0 0 0
239 1 0.07991817739240538 8.574763527104391 5.741918040814495 0 0 0
240 1 1.4939575111220358 9.992667176460795 7.159946447163304 0 0 0
241 1 2.9031401931541145 8.574791136591314 5.738332495426845 0 0 0
242 1 4.321514283969883 9.993295939358934 7.152912350233149 0 0 0
243 1 5.702851728166496 8.574975356555402 5.710386447363966 0 0 0
244 1 7.119529822791829 10.022191136793923 7.117032818936539 0 0 0
245 1 8.54932594871561 8.554247728505205 5.7394912706164565 0 0 0
246 1 9.995481751571809 9.970180278120965 7.0888918714122235 0 0 0
247 1 11.431949568608385 8.556337505556641 5.736957636171909 0 0 0
248 1 12.870274435823175 10.019194444771488 7.109561863108095 0 0 0
249 1 14.278257491160659 8.574601577405653 5.710225347581919 0 0 0
250 1 15.676277185936819 9.98541913749089 7.139146378418854 0 0 0
251 1 17.08640751037084 8.570829723132334 5.733258505034659 0 0 0
252 1 18.493169231896324 9.992317279744677 7.1581277659994065 0 0 0
253 1 0.08120516247157088 11.41001412019189 5.742672117579144 0 0 0
254 1 1.4953292171640928 12.825874479069967 7.162118271530066 0 0 0
255 1 2.9068265826164112 11.411781932696417 5.74228507744506 0 0 0
256 1 4.3261338148013415 12.824327839708962 7.163310050202214 0 0 0
257 1 5.722812584863686 11.422737968576914 5.7264545046715405 0 0 0
258 1 7.16924102516567 12.810576017966756 7.174980486939866 0 0 0
259 1 8.574389833898033 11.407064751210658 5.750187539881202 0 0 0
260 1 9.995806627848161 12.799039267106162 7.179424953277647 0 0 0
261 1 11.416446441256552 11.409953552495725 5.748062460639414 0 0 0
262 1 12.83665010096347 12.827385558480422 7.144537670295553 0 0 0
263 1 14.267841025036027 11.423403875376179 5.723036065147993 0 0 0
264 1 15.684124988711789 12.829305671179593 7.137113940543371 0 0 0
265 1 17.0885558712355 11.409146558966187 5.7323362161960825 0 0 0
266 1 18.494917346486076 12.827920076747048 7.158135575694355 0 0 0
267 1 0.08291587637318545 14.244432257518195 5.743462243006852 0 0 0
268 1 1.4962748625206606 15.660268535370257 7.160976397861369 0 0 0
269 1 2.911686575013903 14.242521382962451 5.746188966588886 0 0 0
270 1 4.324476001967297 15.662453952086937 7.157653763875011 0 0 0
271 1 5.747655213399394 14.23676113936251 5.750053753210265 0 0 0
272 1 7.162234425780131 15.656874445582167 7.161190878690647 0 0 0
273 1 8.58039437467137 14.234175398419902 5.751663512764197 0 0 0
274 1 9.987433827470394 15.665066985912711 7.154226088422573 0 0 0
275 1 11.40755289841063 14.239310844483148 5.750766116855005 0 0 0
276 1 12.831170311236965 15.680423251981333 7.136592859333171 0 0 0
277 1 14.251843549458464 14.24953712611067 5.73852582255307 0 0 0
278 1 15.691096283921903 15.690520041326 7.12935418823364 0 0 0
279 1 17.089392337534413 14.249111514669027 5.73219985607596 0 0 0
280 1 18.49728257419938 15.66508537020124 7.156637968414938 0 0 0
281 1 0.08397009072152838 17.07851388419919 5.742547743162005 0 0 0
282 1 1.4968898985724584 18.491282650948378 7.1614945675546355 0 0 0
283 1 2.912323018915142 17.076428276350242 5.744078125072682 0 0 0
284 1 4.329702073258371 18.489367889364132 7.162840431778139 0 0 0
285 1 5.7461008464140155 17.073604783272906 5.746217182833084 0 0 0
286 1 7.16183479442843 18.48940388637702 7.16364752017557 0 0 0
287 1 8.574783492005553 17.07654521368316 5.743772698886955 0 0 0
288 1 9.993078078319478 18.49094156435642 7.162848109598882 0 0 0
289 1 11.405681947973749 17.081149602816687 5.739168894755746 0 0 0
290 1 12.827101430338873 18.493458817510493 7.158562236896627 0 0 0
291 1 14.247947446193646 17.08750365523791 5.732190868221263 0 0 0
292 1 15.664707263887513 18.496820288689683 7.155769450060862 0 0 0
293 1 17.090536444901232 17.090471464861288 5.730033050716584 0 0 0
294 1 18.49658139945989 18.495566086024837 7.159515208292882 0 0 0
295 1 0.08130286542869901 19.90708797344184 8.57840752530143 0 -1 0
296 1 1.4934641648456644 1.4922814078470559 9.996270814108504 0 0 0
297 1 2.911989410702085 19.90482866181638 8.579068972068097 0 -1 0
298 1 4.326479241972982 1.4919522915026584 9.99602685069175 0 0 0
299 1 5.7453169637936945 19.904856635421154 8.579643179055417 0 -1 0
300 1 7.161073453354051 1.495294083737837 9.994134286752367 0 0 0
301 1 8.577713626332752 19.906049087700715 8.579214894211267 0 -1 0
302 1 9.993744344208078 1.4973513349672192 9.991744682480979 0 0 0
303 1 11.410620861416223 19.906855549600138 8.577731214677746 0 -1 0
304 1 12.825814220492257 1.4969843025830862 9.992789726922991 0 0 0
305 1 14.243943631110454 0.0803890483717246 8.576043878472689 0 0 0
306 1 15.659049566247344 1.4949226494948724 9.994982906466694 0 0 0
307 1 17.07696198863087 0.08064279394816509 8.577692076116486 0 0 0
308 1 18.49236196390698 1.4941872820859852 9.995879260935697 0 0 0
309 1 19.905756155276556 2.9088940047939706 8.578929099529628 -1 0 0
310 1 1.4904703011828984 4.324179093887335 9.995976779943076 0 0 0
311 1 2.9031657544179525 2.9023784770635803 8.579337226528985 0 0 0
312 1 4.310915774795557 4.311730983082365 10.000328040438838 0 0 0
313 1 5.737931266116635 2.905895936567059 8.577464082805328 0 0 0
314 1 7.153557392354829 4.3261570953368365 9.992536912542002 0 0 0
315 1 8.571988368381744 2.912642611374201 8.573056496748636 0 0 0
316 1 9.989654194201549 4.328591271526298 9.982226235968596 0 0 0
317 1 11.411662519483555 2.9143752942576815 8.573176600174166 0 0 0
318 1 12.828028536392349 4.329848299926442 9.99070275612512 0 0 0
319 1 14.245924664098865 2.9093839990255725 8.576197939485636 0 0 0
320 1 15.667945441572744 4.318871578491962 9.99958821263503 0 0 0
321 1 17.079626710089478 2.906447966507411 8.579108552061735 0 0 0
322 1 18.49044537578049 4.326832854552901 9.995870416600127 0 0 0
323 1 19.904764138537345 5.742379616144968 8.578255364008081 -1 0 0
324 1 1.4921047003819485 7.159266805655452 9.994428339686005 0 0 0
325 1 2.9017213402459867 5.736046796542946 8.576840547321721 0 0 0
326 1 4.318385275247897 7.149366251237787 9.995237397575949 0 0 0
327 1 5.69909282141535 5.704861119266861 8.574602351072377 0 0 0
328 1 7.108033932899383 7.1050585446321755 10.022564961265768 0 0 0
329 1 8.543321995344133 5.730976393158375 8.548846009510862 0 0 0
330 1 9.97909666950839 7.084608895179704 9.94605345366678 0 0 0
331 1 11.430532870523546 5.738326292081463 8.553810520150533 0 0 0
332 1 12.870189608092055 7.116733803482483 10.010351056703561 0 0 0
333 1 14.278005529248418 5.713942668123995 8.572823041079777 0 0 0
334 1 15.656058308000185 7.160960318627014 9.996747094304272 0 0 0
335 1 17.077343645736683 5.74187287481024 8.57798418449384 0 0 0
336 1 18.48834619693627 7.161570258438381 9.994856023548202 0 0 0
337 1 19.905194313822875 8.576189799641048 8.577077479900359 -1 0 0
338 1 1.4940274313760178 9.99316047942178 9.993840297201237 0 0 0
339 1 2.904489099628722 8.572411185056756 8.574226395205574 0 0 0
340 1 4.332253121415306 9.98676458737984 9.990864557498961 0 0 0
341 1 5.692820556218706 8.554758348930754 8.557936066619995 0 0 0
342 1 7.180946561130312 9.956589313338684 9.967654898816523 0 0 0
343 1 8.243484217478665 8.396407636592713 8.408316588066917 0 0 0
344 1 9.9534139527447 9.368655510962602 9.327007001329415 0 0 0
345 1 11.705441330084204 8.420747699728803 8.419050613063101 0 0 0
346 1 12.768354922156304 10.00228704230841 9.987857769420543 0 0 0
347 1 14.274415060219939 8.57419547954888 8.566196772952642 0 0 0
348 1 15.652462540291467 9.994404595110602 9.987965653143732 0 0 0
349 1 17.07740308934165 8.574802094301349 8.574544618636029 0 0 0
350 1 18.486992791576178 9.995839934197505 9.993406873354928 0 0 0
351 1 19.906027593028575 11.409943108219789 8.577667550419543 -1 0 0
352 1 1.4947368536464294 12.826286189209029 9.994300676207802 0 0 0
353 1 2.9109714537844362 11.407173498527191 8.57894713454621 0 0 0
354 1 4.327350270288658 12.82877986662909 9.993165791952947 0 0 0
355 1 5.739097994095765 11.402262970245676 8.581517310036585 0 0 0
356 1 7.135404901630772 12.861155370975519 9.969902060522099 0 0 0
357 1 8.613371156277488 11.378578293098084 8.65653211004234 0 0 0
358 1 10.016133905235973 12.907547458233852 10.010941018757105 0 0 0
359 1 11.414553987561106 11.395308402967016 8.623939998246408 0 0 0
360 1 12.954713503342424 12.956656457836987 9.802722093687775 0 0 0
361 1 14.280268555923918 11.393961424820601 8.548560366600512 0 0 0
362 1 15.665581213396086 12.844652514287024 9.979516245271647 0 0 0
363 1 17.07630957698035 11.41086813317483 8.573798491055301 0 0 0
364 1 18.48902024616188 12.830006113638193 9.992300547396987 0 0 0
365 1 0.08002494259459329 14.244253431356732 8.576953184232197 0 0 0
366 1 1.49482953654268 15.65941013702292 9.9946424482334 0 0 0
367 1 2.909721924889082 14.243277212080487 8.577381608535541 0 0 0
368 1 4.322410034106776 15.664056738759992 9.991450132951046 0 0 0
369 1 5.732571814464209 14.25354422088225 8.566753772711774 0 0 0
370 1 7.165067489099065 15.653071961885802 9.999181276111148 0 0 0
371 1 8.579107456557242 14.24182151532827 8.573737288482805 0 0 0
372 1 9.999417513238457 15.657592285850862 10.00221157076872 0 0 0
373 1 11.407237683734962 14.270978063089029 8.54929572675821 0 0 0
374 1 12.847261447990636 15.670080289918781 9.980248989233518 0 0 0
375 1 14.309777353006664 14.30751629693544 8.510480734640927 0 0 0
376 1 15.674617156141743 15.674965809876513 9.997416280980621 0 0 0
377 1 17.081849761989396 14.252670936441868 8.56897081745137 0 0 0
378 1 18.493170266141924 15.66134039096242 9.994656637100476 0 0 0
379 1 0.08148106423732106 17.0766812906947 8.578014486858358 0 0 0
380 1 1.4961794603505256 18.491577333888543 9.994877137202476 0 0 0
381 1 2.9107349106744644 17.076433649739457 8.577239250321147 0 0 0
382 1 4.329329491425776 18.489858691472158 9.995106518132511 0 0 0
383 1 5.747094444785279 17.07260075836907 8.57967665598739 0 0 0
384 1 7.163604869846218 18.487951095603798 9.996451392991617 0 0 0
385 1 8.578882415601257 17.071272206712287 8.581122758394573 0 0 0
386 1 9.996688834487744 18.487364837460547 9.996042751511405 0 0 0
387 1 11.412486600530451 17.072959227462256 8.576819508313898 0 0 0
388 1 12.829967881570033 18.490354321982387 9.992518200185229 0 0 0
389 1 14.253175643681615 17.081755190351736 8.568032962777949 0 0 0
390 1 15.661042856510736 18.494378281305764 9.993928098452349 0 0 0
391 1 17.084679441032193 17.084882062420753 8.575797159991078 0 0 0
392 1 18.495986663842622 18.496043305796476 9.994136971026585 0 0 0
393 1 0.08104021688628925 0.08057734551152011 11.411891609179536 0 0 0
394 1 1.49410183680692 1.493944353120493 12.828941508046384 0 0 0
395 1 2.912147607574925 19.905804707739094 11.411777102798972 0 -1 0
396 1 4.3281157069526 1.4935458599895381 12.827726433290245 0 0 0
397 1 5.7461575881609015 19.90591003967471 11.410788385967424 0 -1 0
398 1 7.162983317095567 1.4960872946290609 12.824974729694732 0 0 0
399 1 8.579684749105667 19.906149155687828 11.409706056538074 0 -1 0
400 1 9.993892333950235 1.4977492818578386 12.823520357425352 0 0 0
401 1 11.411553455738382 19.906755056116786 11.40980204019977 0 -1 0
402 1 12.82423018911007 1.4976340082476487 12.8258607754496 0 0 0
403 1 14.242000000346433 0.08032833956897101 11.410865090241366 0 0 0
404 1 15.657528696670134 1.4965287623251429 12.82769890376834 0 0 0
405 1 17.076007316370635 0.0816475760214211 11.411490569954863 0 0 0
406 1 18.491690854479245 1.4957741216019724 12.828655267744567 0 0 0
407 1 19.90522152184863 2.9104876886261284 11.412394162767873 -1 0 0
408 1 1.4910158820942578 4.326248312971343 12.828342484995936 0 0 0
409 1 2.9049663257576497 2.904865348124421 11.414768483500024 0 0 0
410 1 4.316936227732711 4.317917106764459 12.834202362148137 0 0 0
411 1 5.74232619336224 2.9086914089312645 11.41211267810791 0 0 0
412 1 7.160381296794687 4.328372773547666 12.8268569951845 0 0 0
413 1 8.576998211928412 2.9160910928366874 11.406885237609764 0 0 0
414 1 9.990702090170071 4.335069117102902 12.822038939345056 0 0 0
415 1 11.40793721943127 2.917037935473777 11.406485882381022 0 0 0
416 1 12.823144095641448 4.33073683086574 12.825699756565763 0 0 0
417 1 14.24128054403719 2.9120398226471824 11.41084127217704 0 0 0
418 1 15.662159778071977 4.324619876197948 12.831263545560773 0 0 0
419 1 17.077144595576442 2.9087224755447294 11.413791983431498 0 0 0
420 1 18.489305839154007 4.328922833166952 12.827697963117215 0 0 0
421 1 19.90401130360629 5.744708325425036 11.411118617363321 -1 0 0
422 1 1.4916216491830792 7.161744183506587 12.826303904875768 0 0 0
423 1 2.9036475429234394 5.7397709381596105 11.413168806039343 0 0 0
424 1 4.319576721208786 7.158048914470184 12.828344050857169 0 0 0
425 1 5.718026956548331 5.720787059745725 11.425776634872527 0 0 0
426 1 7.154567311340337 7.1629688547373975 12.820020882289537 0 0 0
427 1 8.573561259036884 5.751354365775263 11.408836608942286 0 0 0
428 1 9.983260956216382 7.190006849123006 12.812146437177676 0 0 0
429 1 11.405701798772029 5.749451143496608 11.406484718180028 0 0 0
430 1 12.828848119977208 7.165188515720524 12.822873000227645 0 0 0
431 1 14.255843077705695 5.732705604830965 11.421957443368878 0 0 0
432 1 15.653495431750715 7.1693496815336974 12.824250812173533 0 0 0
433 1 17.07409612313525 5.74574753674224 11.412282555653821 0 0 0
434 1 18.48766084168244 7.164144558155076 12.82516786811381 0 0 0
435 1 19.90381960189906 8.579579011950337 11.409842686256107 -1 0 0
436 1 1.4931304488296016 9.994340825402979 12.82747798310465 0 0 0
437 1 2.908889857392863 8.57700131304798 11.409606981172132 0 0 0
438 1 4.323047626684324 9.989165521131095 12.835654792662696 0 0 0
439 1 5.7340857212472605 8.574559049213313 11.409023753588555 0 0 0
440 1 7.117981078491609 9.959120493608168 12.887978509488489 0 0 0
441 1 8.593918776440017 8.624204867162035 11.393349278602834 0 0 0
442 1 9.967901611253145 9.980526619453387 13.04892110289518 0 0 0