LAMMPS data file via write_data, version 24 Dec 2020, timestep = 0

687 atoms
1 atom types

0.07973089355859919 19.9074531064414 xlo xhi
0.07973089355859919 19.9074531064414 ylo yhi
0.07973089355859919 19.9074531064414 zlo zhi

Masses

1 55.85

Atoms # atomic

1 1 0.08461345507853162 0.08317581257112985 0.07981812117993535 0 0 0
2 1 1.495909538509864 1.4925518470169383 1.491114204611267 0 0 0
3 1 2.914381565545783 19.90724578190006 19.906111105666042 0 -1 -1
4 1 4.327058097396862 1.4918707234659037 1.4928630541939032 0 0 0
5 1 5.744064507352129 0.07991087867551061 0.08011332595053113 0 0 0
6 1 7.159167412273119 1.4934674441583322 1.4941776978585948 0 0 0
7 1 8.574730696966032 0.0817225324851127 0.08160598633644656 0 0 0
8 1 9.991626377938106 1.4950626714225208 1.4945918238735458 0 0 0
9 1 11.407216172774243 0.08333179500841974 0.0822164433490003 0 0 0
10 1 12.82487316800405 1.4962370488179857 1.4943413690557514 0 0 0
11 1 14.241691428844252 0.08472039415604253 0.08229772980780901 0 0 0
12 1 15.659702646848498 1.4965337840418236 1.493408897851071 0 0 0
13 1 17.077984522704952 0.08535480671846116 0.08181283168089741 0 0 0
14 1 18.49530506224172 1.494993531126134 1.4915926931753942 0 0 0
15 1 19.90735085086905 2.9101053818938345 19.903186631776435 -1 0 -1
16 1 1.4924201707816414 4.322228697064683 1.490117368775675 0 0 0
17 1 2.910286798493486 2.907808295921193 19.904671824215846 0 0 -1
18 1 4.323661818916372 4.321780978395474 1.4918342328833674 0 0 0
19 1 5.743244794836638 2.909039582812367 19.906523083460016 0 0 -1
20 1 7.158816649648821 4.324939511580285 1.4942872846229178 0 0 0
21 1 8.575964223417857 2.9110525383010426 19.907146747933872 0 0 -1
22 1 9.99214556388618 4.326803330862252 1.4946131529334388 0 0 0
23 1 11.408393985175534 2.9122170845007944 19.906987674342922 0 0 -1
24 1 12.825133869188967 4.326992242968896 1.4941143397309204 0 0 0
25 1 14.241568808173394 2.912400336434382 19.906329320586224 0 0 -1
26 1 15.66084678460726 4.3247709786011255 1.4914766314615684 0 0 0
27 1 17.076098906453062 2.9113129154781623 19.904659716784955 0 0 -1
28 1 18.49305920750168 4.324540031619803 1.4901552693931455 0 0 0
29 1 19.90671826493722 5.740576220517299 19.904487056303182 -1 0 -1
30 1 1.492830352312912 7.156986240708207 1.4916534491630755 0 0 0
31 1 2.9081606518234517 5.739767416717886 19.906331007942782 0 0 -1
32 1 4.323440174590207 7.157038623607556 1.4936933324257597 0 0 0
33 1 5.7411624536680534 5.740546862366821 0.08071372110203934 0 0 0
34 1 7.157083168581008 7.157774299279933 1.4962287340613383 0 0 0
35 1 8.575757726533407 5.743449713385894 0.08112163520142335 0 0 0
36 1 9.991984216903179 7.160555604775206 1.497570131005632 0 0 0
37 1 11.408549173722106 5.7445447589770895 0.0805329232225947 0 0 0
38 1 12.82652548280612 7.159199996479339 1.4956217518477468 0 0 0
39 1 14.242199429437338 5.743338119288366 19.906893090450396 0 0 -1
40 1 15.660197519477965 7.1588511402422 1.492643802832349 0 0 0
41 1 17.074839493948026 5.74290477848248 19.904698342943078 0 0 -1
42 1 18.493567646111863 7.157552814101733 1.4914424478067316 0 0 0
43 1 0.08049392927013735 8.574379038371829 19.906916632701815 0 0 -1
44 1 1.4944343235043236 9.993268550372216 1.4934862133146878 0 0 0
45 1 2.9086486857496174 8.574989442720735 0.08042260248712355 0 0 0
46 1 4.325072308536822 9.993327129258358 1.495499273768628 0 0 0
47 1 5.741192624175164 8.575246036193716 0.08216323717464512 0 0 0
48 1 7.159273339528132 9.991856782950556 1.4984452631101841 0 0 0
49 1 8.575259428842964 8.576342856166903 0.08146496163124864 0 0 0
50 1 9.992758116687424 9.991327037788901 1.4992943392221219 0 0 0
51 1 11.409148660148874 8.577403927248875 0.08088707939538653 0 0 0
52 1 12.825906522207845 9.993495303007506 1.4975298533570323 0 0 0
53 1 14.241460984050063 8.577469000370069 0.08043539140438517 0 0 0
54 1 15.66090676714909 9.993636517933725 1.4944209742898507 0 0 0
55 1 17.076500792242307 8.575148299998586 0.08001275734198855 0 0 0
56 1 18.494879329534818 9.992803126421549 1.4931625419897996 0 0 0
57 1 0.08224144637510919 11.410181322098657 0.08129333618547384 0 0 0
58 1 1.4965332398707825 12.829070834099042 1.495233730419661 0 0 0
59 1 2.910004350908688 11.410870238214645 0.08176625027532047 0 0 0
60 1 4.327583139663924 12.827677287611664 1.4972542512063973 0 0 0
61 1 5.742394526814314 11.409790776885105 0.08334461456039309 0 0 0
62 1 7.161265643048004 12.824784571747779 1.4992820594224412 0 0 0
63 1 8.576201014029142 11.409119760121142 0.08251948751048456 0 0 0
64 1 9.993617019266262 12.823839174122948 1.4998588304562084 0 0 0
65 1 11.409723475754523 11.410395834887161 0.08193850547519409 0 0 0
66 1 12.826314374674125 12.827331674195687 1.4984214513080552 0 0 0
67 1 14.243546516487868 11.41093452483972 0.0819183528613617 0 0 0
68 1 15.661533168308765 12.828927452546004 1.495857932826566 0 0 0
69 1 17.07863251885223 11.41005278069059 0.08237672419313422 0 0 0
70 1 18.496054956303595 12.829092808067593 1.494668291984796 0 0 0
71 1 0.08407421052672123 14.246463631762666 0.08289730737688822 0 0 0
72 1 1.4989628162694173 15.662873651953571 1.496731607635379 0 0 0
73 1 2.9118564105848903 14.245896502231385 0.08292727455752852 0 0 0
74 1 4.32991932959085 15.659954506478586 1.4987806724027324 0 0 0
75 1 5.743809460019505 14.244002548497866 0.0844056286054197 0 0 0
76 1 7.161889040664367 15.65758212951513 1.4997443639084314 0 0 0
77 1 8.577159423521723 14.24174195834403 0.08419425629526282 0 0 0
78 1 9.99239780012807 15.658631723731169 1.499664577509383 0 0 0
79 1 11.409056477264452 14.244183076109838 0.08377746521528831 0 0 0
80 1 12.825088332532856 15.660999133440228 1.498940300374311 0 0 0
81 1 14.245360748367888 14.247605187992546 0.08465505350092868 0 0 0
82 1 15.661706976549324 15.664130764287414 1.4973942719868176 0 0 0
83 1 17.0802469920526 14.24711836634647 0.08441890761221987 0 0 0
84 1 18.496905521884948 15.664291705850532 1.4960807872007875 0 0 0
85 1 0.08561029091412381 17.081221175406185 0.08330748890815873 0 0 0
86 1 1.5002632407961674 18.493344490577044 1.496099021703544 0 0 0
87 1 2.913970302238376 17.078463608078685 0.08251591571401107 0 0 0
88 1 4.330360265241501 18.49072562489382 1.4971926028811868 0 0 0
89 1 5.745393775348139 17.076034730255657 0.08318445199627345 0 0 0
90 1 7.160137925697199 18.49125459361379 1.4982317072167037 0 0 0
91 1 8.575340018422672 17.07709745128558 0.08477440314940056 0 0 0
92 1 9.991187586097896 18.49279601560182 1.4984705764518014 0 0 0
93 1 11.40750722755963 17.07919185127188 0.08535208072919137 0 0 0
94 1 12.8244350299337 18.494407254753064 1.4979247040925907 0 0 0
95 1 14.243309136343704 17.081501714915312 0.0856726252877558 0 0 0
96 1 15.660002558729996 18.496123316766116 1.4969826569977978 0 0 0
97 1 17.080830633130553 17.08331828187442 0.08561780577014665 0 0 0
98 1 18.496224759137426 18.49599696873876 1.4958326932688364 0 0 0
99 1 0.0841349665144022 0.08073412846193583 2.9081448103308802 0 0 0
100 1 1.493914828008899 1.4903728528696065 4.325465349867645 0 0 0
101 1 2.913159507053505 19.904972778806098 2.9106741464569206 0 -1 0
102 1 4.324666515872242 1.4893770401431017 4.325299889712722 0 0 0
103 1 5.743957013332928 19.90561660173139 2.9119179711786787 0 -1 0
104 1 7.1590535760491365 1.492285443183959 4.327367621725875 0 0 0
105 1 8.575116035803926 0.07973541818956002 2.912095440006304 0 0 0
106 1 9.992046275444135 1.4940960650567485 4.327708670019464 0 0 0
107 1 11.40762474736821 0.0812566829019507 2.9114619657234377 0 0 0
108 1 12.825503059512446 1.4951058725546889 4.326714549449604 0 0 0
109 1 14.241976875906333 0.08249393191377344 2.910066826727818 0 0 0
110 1 15.662095718235532 1.493990586194745 4.324006809335563 0 0 0
111 1 17.07881521892184 0.08261651462882098 2.9080018459687147 0 0 0
112 1 18.49544802660389 1.4931111449592498 4.324634653650761 0 0 0
113 1 0.07989496642096082 2.9074529037321124 2.9072251134351825 0 0 0
114 1 1.4901098539196511 4.320131590596458 4.322619239442044 0 0 0
115 1 2.9034735030298875 2.9006835656282024 2.90273912424485 0 0 0
116 1 4.305831503570722 4.304841729492837 4.307490391177559 0 0 0
117 1 5.740613033194364 2.9033421592642497 2.905541771004203 0 0 0
118 1 7.156051093543053 4.313155354886009 4.3152478359217845 0 0 0
119 1 8.575520541661813 2.9057430590371562 2.906925567212925 0 0 0
120 1 9.992748347804277 4.316227805523917 4.3171680497771305 0 0 0
121 1 11.409128260358429 2.9072549174657816 2.9072367053063783 0 0 0
122 1 12.826914849585464 4.3182184342334695 4.318355802258773 0 0 0
123 1 14.243653205380534 2.9076080489708764 2.9065767177565176 0 0 0
124 1 15.675070668535387 4.311194087115839 4.311141691896567 0 0 0
125 1 17.082186004938002 2.904937917497979 2.903601765779812 0 0 0
126 1 18.494298089216706 4.322586129175336 4.32332462619146 0 0 0
127 1 19.90736908537182 5.739158166620345 2.9065443506876574 -1 0 0
128 1 1.4913087520775794 7.156331506124399 4.323202880519999 0 0 0
129 1 2.901791893328816 5.736443224487744 2.902324877895982 0 0 0
130 1 4.306884533211692 7.151784670111613 4.309831831991663 0 0 0
131 1 5.736060799821482 5.735635079488141 2.906395711554005 0 0 0
132 1 7.145704553840062 7.147721177463804 4.319760845542048 0 0 0
133 1 8.574805765236185 5.741139727192063 2.9104035439062423 0 0 0
134 1 9.9905273063537 7.158253916882633 4.330932955408614 0 0 0
135 1 11.408538856835627 5.74249111402796 2.9106050229886513 0 0 0
136 1 12.835511623571586 7.150157323143482 4.3209469675915795 0 0 0
137 1 14.247033231641826 5.737989527997429 2.906001956549283 0 0 0
138 1 15.67349365609682 7.153566451469385 4.312108271875593 0 0 0
139 1 17.081614966020396 5.738846931385509 2.90312914481191 0 0 0
140 1 18.496312916247454 7.155130363211473 4.321365678557706 0 0 0
141 1 0.0810593677050027 8.57435706440328 2.9073949162690114 0 0 0
142 1 1.4933509354966652 9.993397091780283 4.32481735372037 0 0 0
143 1 2.9040846982751254 8.57602629386002 2.9050356596201548 0 0 0
144 1 4.313621521604623 9.998015572915994 4.315988557551233 0 0 0
145 1 5.737972565723176 8.574655824048032 2.9091631431636666 0 0 0
146 1 7.155187143809339 9.990130562067515 4.329516692199266 0 0 0
147 1 8.572480900444187 8.572670989268564 2.9151480975534287 0 0 0
148 1 9.99247173244706 9.985351798378154 4.329847221054202 0 0 0
149 1 11.411465028089891 8.57341547878976 2.914641661712881 0 0 0
150 1 12.830401661993111 9.99233202819532 4.327068688008127 0 0 0
151 1 14.245867067921155 8.575493452922125 2.9082043312191277 0 0 0
152 1 15.672529789793078 9.99571364489839 4.313687921928025 0 0 0
153 1 17.08190518435743 8.575221720689093 2.9041116095922597 0 0 0
154 1 18.498134188530024 9.991039917775508 4.320927935643699 0 0 0
155 1 0.08256511769999855 11.410646746049323 2.9085705430377833 0 0 0
156 1 1.495714902347809 12.828301572472288 4.326949080330289 0 0 0
157 1 2.907160855407039 11.413205609463903 2.9077500878412543 0 0 0
158 1 4.321139457688624 12.832305151232626 4.3228860523398955 0 0 0
159 1 5.742554227799434 11.41010729137072 2.9119222818891366 0 0 0
160 1 7.161604478811722 12.8243028760497 4.331079452420105 0 0 0
161 1 8.576736545626387 11.406206102110888 2.9171379037957066 0 0 0
162 1 9.994617417426438 12.820665165342405 4.334690390655652 0 0 0
163 1 11.410098960351425 11.407499250989865 2.916794551934317 0 0 0
164 1 12.828949822891538 12.829124591622081 4.326461098281503 0 0 0
165 1 14.245340009687942 11.411456742079551 2.9102031818864176 0 0 0
166 1 15.670595335588981 12.833796095440077 4.316886524653939 0 0 0
167 1 17.082521936928906 11.412409954695363 2.9053156840425767 0 0 0
168 1 18.499338262980345 12.828228151781781 4.321544688215165 0 0 0
169 1 0.084285211883067 14.24589705836914 2.909882226460731 0 0 0
170 1 1.498751529629516 15.660545093988391 4.328610378624579 0 0 0
171 1 2.9112264280294626 14.246216595944759 2.9110398724192015 0 0 0
172 1 4.330459230433451 15.657314857525517 4.331171438634742 0 0 0
173 1 5.745908451619888 14.241797662036197 2.9144993339655727 0 0 0
174 1 7.162589168974731 15.654684707022932 4.332433458202741 0 0 0
175 1 8.578435888471402 14.239214734813595 2.916231870969044 0 0 0
176 1 9.991809214258938 15.657079801860244 4.330300988784401 0 0 0
177 1 11.408494619228604 14.241703246862228 2.9154562653125904 0 0 0
178 1 12.825285346096214 15.660638803122099 4.327326883302463 0 0 0
179 1 14.244742402775636 14.24649081607071 2.9111973171189196 0 0 0
180 1 15.665667040421962 15.665984267657327 4.322150085214152 0 0 0
181 1 17.08208419401489 14.248319509259403 2.907136956325141 0 0 0
182 1 18.50032072776068 15.664602941085358 4.321834906552196 0 0 0
183 1 0.085572390296653 17.07890984085107 2.910390665070929 0 0 0
184 1 1.4987901557876393 18.49213695699271 4.327350966119542 0 0 0
185 1 2.9152046110913945 17.075516390336716 2.91372072378126 0 0 0
186 1 4.329713637119145 18.489619208294975 4.329452952888326 0 0 0
187 1 5.7463270459472575 17.07329369046421 2.915100764999352 0 0 0
188 1 7.159617931918773 18.491388935148315 4.328959282486898 0 0 0
189 1 8.57610844829353 17.07419672449975 2.9146651035179896 0 0 0
190 1 9.990194225236978 18.494014199232765 4.327156003212055 0 0 0
191 1 11.407712418429584 17.076265334442674 2.9135090900081493 0 0 0
192 1 12.824335876294228 18.496162194605724 4.3247990008081025 0 0 0
193 1 14.24258202518304 17.078775171530026 2.9114663476620706 0 0 0
194 1 15.66312359605125 18.49892995135953 4.321196180065351 0 0 0
195 1 17.080125246381137 17.080863743295545 2.909151783355894 0 0 0
196 1 18.49984810679279 18.498511954972905 4.321263867634599 0 0 0
197 1 0.08231876183872763 19.906916088429057 5.743747225724104 0 -1 0
198 1 1.493429929881988 1.4910072654320237 7.161758443728352 0 0 0
199 1 2.9121241512862417 19.904148217648917 5.745272299734055 0 -1 0
200 1 4.325213574014358 1.4903779088998128 7.161459692494301 0 0 0
201 1 5.743767254420983 19.904609078382855 5.7456482114524166 0 -1 0
202 1 7.1578821280646165 1.4929108988748208 7.160576624014946 0 0 0
203 1 8.57611889986501 19.906829617485627 5.746220217999177 0 -1 0
204 1 9.99266798060557 1.4957506205421218 7.161738249298611 0 0 0
205 1 11.408509078698595 0.080666734362059 5.744778601431955 0 0 0
206 1 12.827367268670292 1.4954664487503913 7.159552233027031 0 0 0
207 1 14.243904791700965 0.08148577315993674 5.7419524211248545 0 0 0
208 1 15.661497451447747 1.4942418864281342 7.1595450808716325 0 0 0
209 1 17.079443063237036 0.0817370733933253 5.741354154337068 0 0 0
210 1 18.49338304584478 1.493233727674297 7.161472996666269 0 0 0
211 1 19.906467215574807 2.9073265557047567 5.743447313842607 -1 0 0
212 1 1.4900550344020427 4.32194815755556 7.160140736228896 0 0 0
213 1 2.901866708861435 2.8999590265730273 5.740032130329755 0 0 0
214 1 4.30580600791037 4.306369001576678 7.153528813084475 0 0 0
215 1 5.7354681778458145 2.902671695584129 5.737485281275924 0 0 0
216 1 7.142748892753686 4.314358073587242 7.146649140743519 0 0 0
217 1 8.574961658641017 2.9080039996339093 5.742277837040269 0 0 0
218 1 9.990743562885791 4.3288411151010635 7.156777852381259 0 0 0
219 1 11.40919290809267 2.909757300606083 5.742872013011089 0 0 0
220 1 12.835881273117739 4.321708483657519 7.150053187095651 0 0 0
221 1 14.247666433752011 2.906687430120753 5.738520188272224 0 0 0
222 1 15.673265941979722 4.3140185702754374 7.154742497554353 0 0 0
223 1 17.08225369250726 2.9045199211113397 5.740326276521354 0 0 0
224 1 18.49198352491053 4.324674700940849 7.160867847389565 0 0 0
225 1 19.90605560058578 5.739319108183465 5.741742896023278 -1 0 0
226 1 1.4910726061888697 7.155844684478326 7.158089124204713 0 0 0
227 1 2.899939322693925 5.7323262769037395 5.734885524331998 0 0 0
228 1 4.3052681487386515 7.141334511954791 7.14353740848198 0 0 0
229 1 5.696256212558021 5.698377135044992 5.700406546462856 0 0 0
230 1 7.053383162570997 7.062430563541928 7.065445815884002 0 0 0
231 1 8.578061190534468 5.72279014415763 5.72417081886867 0 0 0
232 1 9.987399330134116 7.174235084962471 7.169579175064482 0 0 0
233 1 11.403560504743101 5.729076800880356 5.729117055975647 0 0 0
234 1 12.905731945142087 7.085406523863355 7.082823440739424 0 0 0
235 1 14.27833258829002 5.708871741749022 5.7082987219411265 0 0 0
236 1 15.667390213695144 7.15252371793719 7.15036719163837 0 0 0
237 1 17.081299787358454 5.737465604813546 5.737782832150639 0 0 0
238 1 18.492252555453682 7.1569590564001615 7.158707469796967 0 0 0
239 1 0.0798697268632339 8.57452241992487 5.7419167042638355 0 0 0
240 1 1.4938093068284368 9.99251534763115 7.159903356084731 0 0 0
241 1 2.9030286093253705 8.574518047098744 5.738239986442843 0 0 0
242 1 4.321376412296022 9.992318554482976 7.152885981015611 0 0 0
243 1 5.704354130982532 8.574068117440932 5.71110686932315 0 0 0
244 1 7.121015078108751 10.016360564409393 7.119044433941294 0 0 0
245 1 8.552476601753774 8.555970271690141 5.740204613178544 0 0 0
246 1 9.994935429233882 9.971868898176545 7.093432262968183 0 0 0
247 1 11.427045041971422 8.55821997299842 5.7381639535817675 0 0 0
248 1 12.8632720415387 10.014361453268505 7.115880578833014 0 0 0
249 1 14.272479193307683 8.574296916789816 5.7144250969211035 0 0 0
250 1 15.678052872114867 9.982419501898208 7.137401843050769 0 0 0
251 1 17.086563347918663 8.569653777030796 5.73285453698362 0 0 0
252 1 18.493246690686185 9.991993130391322 7.158109862884663 0 0 0
253 1 0.08130668539994756 11.409813354537144 5.742543105423516 0 0 0
254 1 1.4952922682854115 12.825980872100802 7.1619888885225365 0 0 0
255 1 2.9069687012396854 11.41151151451397 5.742370078396468 0 0 0
256 1 4.325679280371806 12.824810233368883 7.16267655242456 0 0 0
257 1 5.72426063007515 11.421285538398513 5.7278715242429925 0 0 0
258 1 7.167420400477938 12.811822820547967 7.172862314306627 0 0 0
259 1 8.573310945729498 11.40647292093983 5.749765640896001 0 0 0
260 1 9.995709201447957 12.797805757222031 7.178223415420436 0 0 0
261 1 11.415998870850206 11.409503939262693 5.749679272299389 0 0 0
262 1 12.837006782543646 12.828196476958972 7.137278103332873 0 0 0
263 1 14.266048029521832 11.42103037057266 5.725397000457731 0 0 0
264 1 15.689024775651495 12.829152955681057 7.1309706792649195 0 0 0
265 1 17.089761950644572 11.407736227572483 5.730920082779525 0 0 0
266 1 18.495245541353476 12.827956419548746 7.157582804651446 0 0 0
267 1 0.08308385685744972 14.244598732228672 5.743252353094632 0 0 0
268 1 1.496556782122203 15.660111753182502 7.161250443135265 0 0 0
269 1 2.9116446061446393 14.24270763256047 5.746074709638897 0 0 0
270 1 4.325386626131195 15.661504612613832 7.158639563051238 0 0 0
271 1 5.747217879501135 14.237270725409251 5.749463001975567 0 0 0
272 1 7.162193950382854 15.65666930008695 7.161424264000302 0 0 0
273 1 8.580067040841342 14.233816290968086 5.751217303756331 0 0 0
274 1 9.98466368012347 15.667694132789952 7.151151093536985 0 0 0
275 1 11.406973318370582 14.240335124287327 5.749881053157696 0 0 0
276 1 12.83084143649282 15.68496559040474 7.131109041120828 0 0 0
277 1 14.253082680934233 14.250926154533682 5.736059658877461 0 0 0
278 1 15.69515115063147 15.694578130721858 7.125117284282575 0 0 0
279 1 17.091341600697014 14.249883421001488 5.7299562164757845 0 0 0
280 1 18.49744791602332 15.665460344473443 7.156416640930779 0 0 0
281 1 0.08425102822822911 17.078678893869743 5.7426030879653425 0 0 0
282 1 1.4971205519863762 18.4910495360365 7.161881064399207 0 0 0
283 1 2.9126257644939675 17.076122324179934 5.7445193914000505 0 0 0
284 1 4.329779220108725 18.48906667248432 7.1631699289013175 0 0 0
285 1 5.745953894614785 17.07351157711109 5.746324394109247 0 0 0
286 1 7.161527565412226 18.48948490133101 7.1636722620606905 0 0 0
287 1 8.573592681007689 17.077529204223666 5.742711888999703 0 0 0
288 1 9.993012460949645 18.491038414687992 7.162685107829843 0 0 0
289 1 11.404766517087975 17.082717959416136 5.737498486944954 0 0 0
290 1 12.827141380724553 18.493612633146533 7.158249495845069 0 0 0
291 1 14.248707375018256 17.089431302195436 5.73018393059288 0 0 0
292 1 15.66492968430038 18.496762442350125 7.155783438820589 0 0 0
293 1 17.092308180676035 17.092255785355036 5.728379204037213 0 0 0
294 1 18.49687315481608 18.4958418235 7.159796667192069 0 0 0
295 1 0.08138629063404657 19.907212823652884 8.578576704568553 0 -1 0
296 1 1.493511216340797 1.4923958645796467 9.996233699798358 0 0 0
297 1 2.9120490910063808 19.904687576720605 8.579232598119473 0 -1 0
298 1 4.326481755656057 1.491925505909627 9.995995859999091 0 0 0
299 1 5.7452696967009595 19.904720497564156 8.579766914190934 0 -1 0
300 1 7.161046206825741 1.4951330612151748 9.994150880110302 0 0 0
301 1 8.577714218142697 19.905904874437844 8.579261145740396 0 -1 0
302 1 9.993706219923954 1.4970692631414593 9.9918061089258 0 0 0
303 1 11.41065836416178 19.90659200333392 8.577779347271628 0 -1 0
304 1 12.825670525300975 1.4968578691369538 9.992791508410821 0 0 0
305 1 14.243897639545576 0.0802612108376786 8.576082603902313 0 0 0
306 1 15.658671271140646 1.4950609252260088 9.994940793874006 0 0 0
307 1 17.076735323122996 0.08062178703338067 8.577946813060155 0 0 0
308 1 18.491987906849168 1.4944709766861168 9.995825125204396 0 0 0
309 1 19.90552516848001 2.9090426177178057 8.579014842638905 -1 0 0
310 1 1.4903755789606046 4.324258021198987 9.995942645012972 0 0 0
311 1 2.9033566183267214 2.902617518604963 8.579242414567469 0 0 0
312 1 4.311337472502048 4.3121483920270895 9.999740156019007 0 0 0
313 1 5.738083185308565 2.905830654631488 8.577452473511665 0 0 0
314 1 7.1538305419719 4.326460017428833 9.992273281703616 0 0 0
315 1 8.572001247503472 2.912087039428959 8.573028614938542 0 0 0
316 1 9.98889488152772 4.32919323263299 9.98256332211131 0 0 0
317 1 11.411173515288743 2.9140141618735136 8.573353251223468 0 0 0
318 1 12.826791417092718 4.330792266292831 9.990602676376083 0 0 0
319 1 14.245200376727533 2.909837239324347 8.57630849184805 0 0 0
320 1 15.665951385627645 4.3207319130547415 9.998683355484626 0 0 0
321 1 17.078650871764502 2.907287677865146 8.579113996278371 0 0 0
322 1 18.489940782564453 4.327184538028199 9.995737454143018 0 0 0
323 1 19.904509572198293 5.742450739030641 8.578361540039745 -1 0 0
324 1 1.4919501944745088 7.159266796361036 9.994393395308151 0 0 0
325 1 2.901689889334567 5.736026747879021 8.576767624189712 0 0 0
326 1 4.318769919521833 7.149702274304226 9.994341621822171 0 0 0
327 1 5.700961209185946 5.705911200386767 8.574118675409371 0 0 0
328 1 7.110867839825852 7.109182904674511 10.018081023812982 0 0 0
329 1 8.545818121240936 5.7300849569182075 8.549343104002807 0 0 0
330 1 9.974933692172796 7.097665857781641 9.941355503734096 0 0 0
331 1 11.425385738109693 5.738281100368449 8.555630805209788 0 0 0
332 1 12.861976830643002 7.125302174198332 10.003446285590394 0 0 0
333 1 14.27234083145177 5.718484282066132 8.572608436079781 0 0 0
334 1 15.653568819414906 7.163114748183546 9.996476554202017 0 0 0
335 1 17.07612298927014 5.742811069348773 8.578164526476387 0 0 0
336 1 18.487993607260016 7.161746625608648 9.994955253343997 0 0 0
337 1 19.905028421264547 8.576118198275186 8.577135497898478 -1 0 0
338 1 1.4937891542146036 9.993054037583713 9.993726396818081 0 0 0
339 1 2.9043926361630215 8.571918921211218 8.573778855413302 0 0 0
340 1 4.330400462639625 9.98590490128633 9.98990628325365 0 0 0
341 1 5.695523779120547 8.551501400398699 8.554298489348737 0 0 0
342 1 7.162369041088288 9.946882471302285 9.955985655571618 0 0 0
343 1 8.279734720439917 8.39498507036927 8.40796822623733 0 0 0
344 1 9.931042661499788 9.443874272990724 9.366807665282602 0 0 0
345 1 11.653869206569313 8.431816691313955 8.431067631507624 0 0 0
346 1 12.773686648856506 10.004730171937629 9.986639457708641 0 0 0
347 1 14.266171769239726 8.575253395511899 8.566443090028953 0 0 0
348 1 15.653770600273214 9.993945933208181 9.987451001722398 0 0 0
349 1 17.076988774291088 8.574325280848788 8.574500049681063 0 0 0
350 1 18.486655320638285 9.995950621481008 9.993350912221173 0 0 0
351 1 19.90592001921558 11.409954569463366 8.577543350364756 -1 0 0
352 1 1.494840580294411 12.826045945221995 9.99430121242373 0 0 0
353 1 2.910679342933474 11.407236610837634 8.578500701184756 0 0 0
354 1 4.328728187588968 12.827009942259405 9.993474614021524 0 0 0
355 1 5.737686515335425 11.402807258298893 8.578577590949369 0 0 0
356 1 7.141070245646862 12.852667998536846 9.973573804482223 0 0 0
357 1 8.604099263569221 11.383076589136724 8.648126114640446 0 0 0
358 1 10.019504122622207 12.879513015655036 10.004123437734169 0 0 0
359 1 11.41681041486396 11.398719700533244 8.629763223716097 0 0 0
360 1 12.972382241064977 12.971633181156916 9.749580666003288 0 0 0
361 1 14.287569293739585 11.389088419202366 8.540177831033901 0 0 0
362 1 15.665285918990836 12.845229899472452 9.976404830601178 0 0 0
363 1 17.076381184564468 11.411117844275552 8.573048210579488 0 0 0
364 1 18.488808210859723 12.83003439368111 9.991984844482706 0 0 0
365 1 0.08010590784205164 14.244249875991537 8.57692438976648 0 0 0
366 1 1.4951947364672027 15.658905113493779 9.994900698850495 0 0 0
367 1 2.9103540836517348 14.242773173919462 8.57789290412252 0 0 0
368 1 4.324449471098369 15.661943154252219 9.992485525580005 0 0 0
369 1 5.735297869036821 14.250810447820534 8.568668403383013 0 0 0
370 1 7.166631412919046 15.65176324445567 9.999463074744238 0 0 0
371 1 8.57958515801651 14.240934184860437 8.573553706464416 0 0 0
372 1 9.99865059596482 15.654561917586177 10.00048783409957 0 0 0
373 1 11.400003586982207 14.27814769827254 8.541473041929601 0 0 0
374 1 12.847819067362815 15.66516877210242 9.97806413446291 0 0 0
375 1 14.32062643183318 14.318043348607514 8.497717927430514 0 0 0
376 1 15.674332816596955 15.674373071590516 9.999889367829503 0 0 0
377 1 17.08250290498102 14.253292549327389 8.567938249001013 0 0 0
378 1 18.49284484958396 15.660958758442911 9.994911015736973 0 0 0
379 1 0.08161331995887652 17.07645762950198 8.578316003383634 0 0 0
380 1 1.496462198229679 18.491232787970077 9.995055887397069 0 0 0
381 1 2.9114357347697073 17.07561133420569 8.577895385712829 0 0 0
382 1 4.329544698843095 18.489460641339882 9.995258807883847 0 0 0
383 1 5.7474660316976545 17.071975216094224 8.58017563878155 0 0 0
384 1 7.163629159513972 18.48779300453262 9.99652997050073 0 0 0
385 1 8.578572155565071 17.07190721587307 8.58089293378377 0 0 0
386 1 9.996920794468505 18.48674741734058 9.995837865496929 0 0 0
387 1 11.412847196196516 17.07265760617804 8.576658455479883 0 0 0
388 1 12.830096621349131 18.489435710597355 9.992276357283856 0 0 0
389 1 14.253396685476947 17.081741388813363 8.567568599454859 0 0 0
390 1 15.660577859561513 18.493692571864784 9.994256964479934 0 0 0
391 1 17.08509407031383 17.0852314382374 8.576535022987139 0 0 0
392 1 18.49621316726622 18.496194955005095 9.99432161221417 0 0 0
393 1 0.08113583581625218 0.08066498816554563 11.411823494634497 0 0 0
394 1 1.49412167335335 1.4940051271029566 12.828719175606569 0 0 0
395 1 2.912241826597226 19.90562401124167 11.41172755976768 0 -1 0
396 1 4.328110589932323 1.4934856159286916 12.827507389806172 0 0 0
397 1 5.746183233112042 19.905761372350348 11.410729009322628 0 -1 0
398 1 7.162953679449338 1.4959513860164753 12.82483359436934 0 0 0
399 1 8.57986728968531 19.905900003195264 11.409609685284483 0 -1 0
400 1 9.993840187288116 1.4975498692756097 12.823582582887292 0 0 0
401 1 11.4116437636468 19.906380609329418 11.40974365264865 0 -1 0
402 1 12.824188726832206 1.4975449980330306 12.825735654429906 0 0 0
403 1 14.24171162327399 0.07997703904594654 11.410781891967035 0 0 0
404 1 15.657229654573424 1.4966202549852494 12.827330972707593 0 0 0
405 1 17.07574120255314 0.0816315945313195 11.411403597128466 0 0 0
406 1 18.491354432566304 1.4959922413985098 12.828333836768675 0 0 0
407 1 19.904979296120807 2.9106538568690508 11.412262286474705 -1 0 0
408 1 1.4909532565403976 4.326352421185295 12.828109854149929 0 0 0
409 1 2.9050681644699248 2.905028762144228 11.414467079647224 0 0 0
410 1 4.317168158996267 4.3181368088512535 12.833323112158572 0 0 0
411 1 5.742390996293277 2.908681556762834 11.41185922093715 0 0 0
412 1 7.160642925449396 4.328886899172327 12.826030936835327 0 0 0
413 1 8.576896088973616 2.9157086667937477 11.406874253656175 0 0 0
414 1 9.98994867575576 4.335133795141236 12.822301686689968 0 0 0
415 1 11.40761200707567 2.9167024551302796 11.406529078104096 0 0 0
416 1 12.822556938788834 4.331542656597795 12.82487771700753 0 0 0
417 1 14.240764764742758 2.9124114577828824 11.410437411622956 0 0 0
418 1 15.660737983572895 4.325920668247199 12.829857191564917 0 0 0
419 1 17.076293869360548 2.9094356732381135 11.413255647335623 0 0 0
420 1 18.488784769054618 4.329253147971131 12.827341424279071 0 0 0
421 1 19.903785295063216 5.744818148739702 11.411052072444535 -1 0 0
422 1 1.4915334033945329 7.161707914126842 12.826290449050877 0 0 0
423 1 2.90377941289906 5.739946293577481 11.41284103325334 0 0 0
424 1 4.31973437649066 7.1576870389398355 12.828382893881411 0 0 0
425 1 5.718867821680699 5.721547550791432 11.423647037251255 0 0 0
426 1 7.153277710637115 7.161172711165291 12.818281742151914 0 0 0
427 1 8.574113836195771 5.752504663997006 11.406581672655586 0 0 0
428 1 9.978463251149787 7.183526484815508 12.819715410577196 0 0 0
429 1 11.402962038473033 5.748887954884691 11.404799276607777 0 0 0
430 1 12.829896166108185 7.162515687610432 12.823864714556093 0 0 0
431 1 14.252298779035616 5.735755739680919 11.418786192449133 0 0 0
432 1 15.652232568816268 7.16963358150279 12.823382831731262 0 0 0
433 1 17.073148883788193 5.746370070610626 11.411640658313667 0 0 0
434 1 18.48721800160356 7.164235137657279 12.825013984101199 0 0 0
435 1 19.903591042116396 8.579610698347926 11.409832853306337 -1 0 0
436 1 1.4932081721793118 9.994330112349735 12.827248858543458 0 0 0
437 1 2.908731748853983 8.57661727378867 11.40965045954334 0 0 0
438 1 4.324574589187911 9.989123081610403 12.834242108972754 0 0 0
439 1 5.733604893108605 8.572404999182124 11.409136174775632 0 0 0
440 1 7.123444803934889 9.960132791760419 12.881161623601303 0 0 0
441 1 8.596839945411489 8.625410276185963 11.395090340377518 0 0 0
442 1 9.937311200684395 9.950118150254886 13.094209908442132 0 0 0