LAMMPS data file via write_data, version 24 Dec 2020, timestep = 0

687 atoms
1 atom types

0.07973089355859919 19.9074531064414 xlo xhi
0.07973089355859919 19.9074531064414 ylo yhi
0.07973089355859919 19.9074531064414 zlo zhi

Masses

1 55.85

Atoms # atomic

1 1 0.08503054621407354 0.08369717433534105 0.07976309643957437 0 0 0
2 1 1.495981708059355 1.4931283807747435 1.4916275588990136 0 0 0
3 1 2.913971049758037 19.907140716991528 19.90584109180213 0 -1 -1
4 1 4.326126731664234 1.4917646814064771 1.4931623577752393 0 0 0
5 1 5.743259064423263 0.07984108144443174 0.0800412835679411 0 0 0
6 1 7.158436221825132 1.4934007157005347 1.494366333745672 0 0 0
7 1 8.57424927473882 0.08181065676227883 0.08160617808829733 0 0 0
8 1 9.991475592983912 1.4951781685420287 1.4947703999056836 0 0 0
9 1 11.407171521306884 0.08352375651749548 0.0822637481013374 0 0 0
10 1 12.825290163968843 1.4964335959573525 1.494489838059562 0 0 0
11 1 14.242059896985056 0.08498004917290257 0.08232288130488347 0 0 0
12 1 15.66033408171896 1.4969745565799377 1.4935685993366739 0 0 0
13 1 17.078591516649425 0.08579901181613148 0.08179011372695007 0 0 0
14 1 18.4953483977877 1.4959342471763994 1.4919884912892154 0 0 0
15 1 19.90726698955701 2.910444560549631 19.903341053681906 -1 0 -1
16 1 1.4922500949317952 4.32215347557741 1.4908362353470594 0 0 0
17 1 2.909198829065078 2.907192413081095 19.905277199958462 0 0 -1
18 1 4.322862027378465 4.32138739852784 1.492469860805382 0 0 0
19 1 5.741903591538813 2.9078569718450855 19.907328658732595 0 0 -1
20 1 7.157913824605767 4.323914428948892 1.4945081838163519 0 0 0
21 1 8.575531617269181 2.9100021537987733 0.08015007682417967 0 0 0
22 1 9.992129333466963 4.3259803178651435 1.4948987526548385 0 0 0
23 1 11.408805418914632 2.911349366951315 0.07990146754967252 0 0 0
24 1 12.825854031149825 4.326374565608458 1.4943237968665721 0 0 0
25 1 14.242473781453198 2.9117941816783435 19.90682788389018 0 0 -1
26 1 15.661086423209355 4.3250032575836075 1.4920390553171512 0 0 0
27 1 17.07659384410473 2.911369388093908 19.904970267367254 0 0 -1
28 1 18.492498983501214 4.325063489668881 1.4908589679982223 0 0 0
29 1 19.906734121906794 5.740460856859408 19.904745332282154 -1 0 -1
30 1 1.492781576825699 7.156600021048514 1.4921464762398085 0 0 0
31 1 2.907030212464722 5.739137719965358 19.90706247837136 0 0 -1
32 1 4.322604292841339 7.156573080334781 1.494080091951776 0 0 0
33 1 5.739694023831948 5.739368263879496 0.08183564889696059 0 0 0
34 1 7.156543513382796 7.157221489798158 1.4964391421339565 0 0 0
35 1 8.574977014488875 5.742013457831435 0.08207721400502581 0 0 0
36 1 9.991868838584981 7.159672291324308 1.4973341809928855 0 0 0
37 1 11.409081753970812 5.7433273455987965 0.08130705917297029 0 0 0
38 1 12.826553756267595 7.15904862247314 1.4956460378610883 0 0 0
39 1 14.242883968818795 5.742869662520073 0.07980462981331464 0 0 0
40 1 15.659867896975769 7.159127086218387 1.4929969540580132 0 0 0
41 1 17.074828947348223 5.7430751681975005 19.904958119003297 0 0 -1
42 1 18.493223958865293 7.157313001671132 1.491935566479681 0 0 0
43 1 0.08069353006212168 8.574089776993052 19.907089199282943 0 0 -1
44 1 1.4945323294385908 9.992820036018983 1.4937863683512975 0 0 0
45 1 2.9078060849707685 8.574816930882708 0.080892920773775 0 0 0
46 1 4.3244251552140485 9.992981906853974 1.4957376245644245 0 0 0
47 1 5.739913329635277 8.57466111447411 0.08299036279107702 0 0 0
48 1 7.158555436242778 9.991648278588125 1.4981832434108173 0 0 0
49 1 8.574467578768637 8.575463555434682 0.08216298745546771 0 0 0
50 1 9.992436074656238 9.991284091794475 1.498776966352902 0 0 0
51 1 11.409105963230562 8.576789702114777 0.08112494386027468 0 0 0
52 1 12.825710097137591 9.993502091057621 1.4971944658299818 0 0 0
53 1 14.24130913563068 8.577604887294354 0.08044429002204039 0 0 0
54 1 15.660740882388016 9.993225981366749 1.4945985831647954 0 0 0
55 1 17.0767003533161 8.574861304163118 0.08030842626348703 0 0 0
56 1 18.49465764246939 9.992267452635078 1.4934190196815524 0 0 0
57 1 0.0825531547751525 11.40981348695908 0.08137070560635976 0 0 0
58 1 1.4966323627687124 12.828757778864516 1.4953012160754215 0 0 0
59 1 2.909365858769258 11.410958118328095 0.08202808617351291 0 0 0
60 1 4.326836865536213 12.82772225733619 1.497231358741464 0 0 0
61 1 5.741309148112044 11.410041349681723 0.08384616514916224 0 0 0
62 1 7.1604731400890715 12.825029110051076 1.4987744055938372 0 0 0
63 1 8.575625827205865 11.409091102033086 0.08264299449276995 0 0 0
64 1 9.993561066316321 12.823965975243382 1.4992425790993762 0 0 0
65 1 11.409463439199152 11.410148159471635 0.081458014746115 0 0 0
66 1 12.826471125742541 12.827208313051594 1.4979770985407375 0 0 0
67 1 14.24352208975827 11.410646189915166 0.0816482711714215 0 0 0
68 1 15.661581528431107 12.828474243495554 1.4957401714985752 0 0 0
69 1 17.07872125982432 11.409726474425756 0.08243613110695482 0 0 0
70 1 18.495918149943314 12.82852650747181 1.4947199746743793 0 0 0
71 1 0.08445907117395322 14.24612416425689 0.08276762004070423 0 0 0
72 1 1.4990308944151751 15.662906121631716 1.4964259195214247 0 0 0
73 1 2.9113636076213045 14.246067083064206 0.08280449408928933 0 0 0
74 1 4.329090109022136 15.660409810464548 1.4982349817814498 0 0 0
75 1 5.74302203716864 14.244408195693229 0.08442610553078077 0 0 0
76 1 7.16142609437256 15.657800845061708 1.4991166700527718 0 0 0
77 1 8.577066209855808 14.241705954968937 0.08393924404510575 0 0 0
78 1 9.992250936898577 15.658946120257324 1.4990654794174147 0 0 0
79 1 11.408990332976447 14.244202869100768 0.08340357960136206 0 0 0
80 1 12.825398387955826 15.661198412638916 1.4983104050480427 0 0 0
81 1 14.24530948121241 14.247267464067837 0.0841511634457757 0 0 0
82 1 15.662035432687079 15.66403620980559 1.4969012095450842 0 0 0
83 1 17.080342308882734 14.246842400437156 0.08420768323914743 0 0 0
84 1 18.49708915588912 15.664058943314853 1.4957253434209394 0 0 0
85 1 0.0861225849611232 17.0811511157509 0.08296899842531928 0 0 0
86 1 1.5002299845029436 18.49383512205452 1.4956603690639634 0 0 0
87 1 2.9136048422038505 17.07855713849493 0.08193047658958211 0 0 0
88 1 4.329764723204471 18.490840077975676 1.4967584628967965 0 0 0
89 1 5.74490954117104 17.07601410575085 0.08273002748743646 0 0 0
90 1 7.159425645840655 18.491581709414284 1.497693352962698 0 0 0
91 1 8.574817073806575 17.077345135725594 0.08456800080919204 0 0 0
92 1 9.990926134957734 18.49316453171685 1.4978850984802754 0 0 0
93 1 11.40747404400289 17.079346259921294 0.0850708979943254 0 0 0
94 1 12.824670759908768 18.494737624919345 1.4973673183164495 0 0 0
95 1 14.243634041779165 17.081540435378116 0.08531287509980624 0 0 0
96 1 15.6606136762826 18.496549820959274 1.4963562050417298 0 0 0
97 1 17.0811594050613 17.08323363642444 0.08520390868840046 0 0 0
98 1 18.496743959834333 18.496471196833703 1.4952742105108052 0 0 0
99 1 0.08465554632269158 0.08182136508686294 2.907940738175547 0 0 0
100 1 1.4941847175457628 1.4911339559906953 4.326021576325474 0 0 0
101 1 2.9127947009495325 19.90520339391734 2.910760130215065 0 -1 0
102 1 4.32411475942276 1.4894238413144683 4.325537201492315 0 0 0
103 1 5.742915145904187 19.905839462770068 2.911435687521252 0 -1 0
104 1 7.158116500787276 1.491970756271405 4.326780982539132 0 0 0
105 1 8.574412247549317 0.08019329804019071 2.911337185429219 0 0 0
106 1 9.991857528704536 1.494018617968927 4.32709141698226 0 0 0
107 1 11.407542003653788 0.08185802127194028 2.9106144053730896 0 0 0
108 1 12.826119067369163 1.4950197778082244 4.326187892195455 0 0 0
109 1 14.242585942912132 0.08320578270396163 2.9092235481598308 0 0 0
110 1 15.662431325328326 1.4946035484350642 4.324144912896326 0 0 0
111 1 17.079580064012333 0.08366202562955061 2.9074007370221975 0 0 0
112 1 18.495221089401547 1.4942291785390933 4.325104133002619 0 0 0
113 1 19.907368705048967 2.907960693657943 2.9077599764912874 -1 0 0
114 1 1.4900736893180664 4.320265508905404 4.323162130553375 0 0 0
115 1 2.904004386882121 2.901633618799701 2.904105719869983 0 0 0
116 1 4.308087054802439 4.307291792774317 4.3102834689308605 0 0 0
117 1 5.739613374357782 2.90330494966705 2.905928378186988 0 0 0
118 1 7.1540852006444275 4.3129917253274765 4.31537318723819 0 0 0
119 1 8.575103001942065 2.9058252858710216 2.907295464882925 0 0 0
120 1 9.99300194354518 4.316601993592195 4.317811013779679 0 0 0
121 1 11.409546329046968 2.907467771527492 2.9076459206023633 0 0 0
122 1 12.828692449631058 4.318673038377806 4.318985730463248 0 0 0
123 1 14.244367793245198 2.9080808842510226 2.9071224234545237 0 0 0
124 1 15.671572632834042 4.314965884237855 4.31494313804616 0 0 0
125 1 17.08109101622938 2.906600156820136 2.905149226200776 0 0 0
126 1 18.49352490936557 4.323232993333181 4.324065793515252 0 0 0
127 1 19.907199315778634 5.7388891311504775 2.9068127753076194 -1 0 0
128 1 1.4912286176470329 7.1558978349688935 4.32330045058068 0 0 0
129 1 2.902240628729129 5.73642067850555 2.903469695955606 0 0 0
130 1 4.308771732000852 7.151366130224163 4.3118804099129475 0 0 0
131 1 5.735813708134113 5.7355881260315975 2.906181154051288 0 0 0
132 1 7.146629093068831 7.147961542865765 4.320589818295066 0 0 0
133 1 8.573918079726322 5.73979780750909 2.909330817822052 0 0 0
134 1 9.990019040012879 7.155302197675253 4.327385581012697 0 0 0
135 1 11.409142778965629 5.741375571312971 2.9096883959204733 0 0 0
136 1 12.834070764486919 7.150797519888579 4.321029740543591 0 0 0
137 1 14.246829342203734 5.738518447898968 2.906170094562818 0 0 0
138 1 15.668996767095717 7.155024963164538 4.3160065547330015 0 0 0
139 1 17.07987909903796 5.739791516054326 2.9048251785002064 0 0 0
140 1 18.496312870325646 7.1544250092385395 4.321206677037071 0 0 0
141 1 0.08118387912362679 8.573729268125382 2.907243658990731 0 0 0
142 1 1.4934121420166935 9.992789927875508 4.324771356331208 0 0 0
143 1 2.9044870889010017 8.575371673528766 2.905846359809256 0 0 0
144 1 4.314777280746272 9.99633723720853 4.317329935325218 0 0 0
145 1 5.737458150406872 8.573784273239653 2.9088510352843033 0 0 0
146 1 7.153736961772923 9.989217181512933 4.326528984477083 0 0 0
147 1 8.57245405503811 8.572323580379091 2.9141639290131467 0 0 0
148 1 9.991854422270862 9.986597826666786 4.32769736271292 0 0 0
149 1 11.410848347861087 8.57334280041613 2.9137188268930925 0 0 0
150 1 12.829127476453156 9.992812240010252 4.326578865298776 0 0 0
151 1 14.244907932959318 8.575557275084925 2.9086738605637876 0 0 0
152 1 15.669817715866406 9.992735179592346 4.315991324192456 0 0 0
153 1 17.08075900878483 8.57446967471704 2.9050640678707143 0 0 0
154 1 18.498805317529275 9.989663983337602 4.32007024611199 0 0 0
155 1 0.08287949627160804 11.41000931911571 2.9081770543812686 0 0 0
156 1 1.495710126440101 12.828119213223914 4.326624593933788 0 0 0
157 1 2.9073795989692814 11.412472845325112 2.908250631747635 0 0 0
158 1 4.321283070087762 12.831384159491888 4.323160265663023 0 0 0
159 1 5.741463835418315 11.409752141482244 2.911395547452323 0 0 0
160 1 7.159029014846639 12.82537174209257 4.327670830194463 0 0 0
161 1 8.575929096687656 11.406552352839416 2.915808170080157 0 0 0
162 1 9.994590793657224 12.820970964021695 4.332461913608763 0 0 0
163 1 11.409988812750301 11.407726522480788 2.9158656240515377 0 0 0
164 1 12.828961732355648 12.828223286678142 4.325227526315632 0 0 0
165 1 14.245429656764315 11.410825103601876 2.91021795939081 0 0 0
166 1 15.669680119638397 12.831388481280213 4.317349978173499 0 0 0
167 1 17.081756498203298 11.411001764486562 2.905914204337819 0 0 0
168 1 18.50053235352454 12.827518324290311 4.319947372620696 0 0 0
169 1 0.08472147905679417 14.245769799280806 2.909171268397542 0 0 0
170 1 1.4985342218934985 15.661154790250094 4.327967133382623 0 0 0
171 1 2.911084913678941 14.246035148575666 2.9110138730470663 0 0 0
172 1 4.328844915536961 15.658862775033448 4.3296736148827435 0 0 0
173 1 5.744500992416199 14.242566156619926 2.913252325223768 0 0 0
174 1 7.161448389668656 15.655749917623538 4.33064259767132 0 0 0
175 1 8.577972442365153 14.239609512578333 2.915003488115418 0 0 0
176 1 9.990445667070594 15.658725672917942 4.327956468419965 0 0 0
177 1 11.408792141650334 14.242247415806947 2.9144581731084593 0 0 0
178 1 12.825971255724669 15.662785933796176 4.3246191939298955 0 0 0
179 1 14.245228960904386 14.24641025760012 2.9106711471448063 0 0 0
180 1 15.667400500105831 15.667575301874448 4.320595100150116 0 0 0
181 1 17.081929388842013 14.247643270100317 2.90702154958525 0 0 0
182 1 18.502107192825086 15.665629267400929 4.3197014441038535 0 0 0
183 1 0.08615238246378779 17.079634719551862 2.9094222281824087 0 0 0
184 1 1.4989208141201464 18.492595272605527 4.327390501858897 0 0 0
185 1 2.9145615310557944 17.076196772451382 2.9131128148609204 0 0 0
186 1 4.329183444383401 18.48982004305519 4.329343911089258 0 0 0
187 1 5.745570975244141 17.07378865881072 2.914278444177952 0 0 0
188 1 7.1581071094448045 18.49246224287618 4.3276308043735705 0 0 0
189 1 8.575302996126636 17.07503952629974 2.9134021495332005 0 0 0
190 1 9.98912156010459 18.49554327040856 4.325299385845151 0 0 0
191 1 11.407521105973808 17.077087831448466 2.9123261260600404 0 0 0
192 1 12.824421761304786 18.49797537091193 4.322667757196772 0 0 0
193 1 14.243358562968968 17.07962657585557 2.9102132039338673 0 0 0
194 1 15.664451072680471 18.500959749358856 4.319179023582036 0 0 0
195 1 17.081011788103822 17.081605888824292 2.9080408216535667 0 0 0
196 1 18.501614419293055 18.500422322854106 4.319732604543409 0 0 0
197 1 0.08273720970823797 0.08001215253360555 5.744018087805206 0 0 0
198 1 1.493698452251216 1.4915716773910541 7.162009643629683 0 0 0
199 1 2.911976750556695 19.90425125530551 5.745615358051678 0 -1 0
200 1 4.32496326416786 1.4903495444729904 7.161725435271377 0 0 0
201 1 5.743031255814296 19.904668381644647 5.745553407832983 0 -1 0
202 1 7.1574628596572225 1.4925415235448387 7.160487313392765 0 0 0
203 1 8.57529106917781 19.90705766355063 5.745503877347507 0 -1 0
204 1 9.992510061044426 1.4949683118812385 7.161062172466861 0 0 0
205 1 11.408442554845418 0.08096528862531212 5.743909569491956 0 0 0
206 1 12.827460471694065 1.4951590599525661 7.159446484238834 0 0 0
207 1 14.244491047444894 0.08200222604749934 5.7414326692058095 0 0 0
208 1 15.661533547016434 1.494644947640203 7.159739077762883 0 0 0
209 1 17.080137590831534 0.08265485256589239 5.741124982108314 0 0 0
210 1 18.492983654807986 1.4940450716100522 7.161818205938705 0 0 0
211 1 19.906223518035418 2.9078350061708362 5.7438993699836 -1 0 0
212 1 1.4901025611247773 4.3221669502020115 7.160460100175109 0 0 0
213 1 2.9027983656015754 2.901144866568537 5.740870191516447 0 0 0
214 1 4.308703247240754 4.309146219947015 7.154437306623004 0 0 0
215 1 5.734982743484164 2.9019046460026545 5.737663547369631 0 0 0
216 1 7.142805480429017 4.314231338927044 7.1463816602761305 0 0 0
217 1 8.573915879421543 2.9062857118315044 5.7410072839807595 0 0 0
218 1 9.990534666843857 4.324093719519038 7.153333721504628 0 0 0
219 1 11.409987277032219 2.9082439704761227 5.741752720309374 0 0 0
220 1 12.834929319498952 4.321266928523928 7.150668843955005 0 0 0
221 1 14.247703630899013 2.906645055158738 5.7390435617704885 0 0 0
222 1 15.669109795531986 4.318020135866591 7.156381095853105 0 0 0
223 1 17.080713517697113 2.9063636394577066 5.741397005916921 0 0 0
224 1 18.491255050825103 4.325239578870201 7.161260647111528 0 0 0
225 1 19.905832803416516 5.739242688518868 5.742045279308325 -1 0 0
226 1 1.4910010721069042 7.155706341498042 7.1582363271074305 0 0 0
227 1 2.89977057105494 5.73245764555028 5.735479028151345 0 0 0
228 1 4.308038702750712 7.141498095817725 7.143987908670446 0 0 0
229 1 5.7025767615153535 5.70405840010112 5.706338670963974 0 0 0
230 1 7.073953649285147 7.079815469331759 7.082766865777024 0 0 0
231 1 8.572846322286983 5.719751237802998 5.7215612392170945 0 0 0
232 1 9.988753207222032 7.147440739016532 7.144035954194411 0 0 0
233 1 11.409170884919822 5.727382979376765 5.727970626427225 0 0 0
234 1 12.879749658353857 7.106684931744565 7.104747397852811 0 0 0
235 1 14.269339540671153 5.717526578979088 5.717023550610542 0 0 0
236 1 15.66340916317234 7.155094206810439 7.15266616136295 0 0 0
237 1 17.079989029183437 5.738639160079724 5.739032647764878 0 0 0
238 1 18.492230558181852 7.156718438368367 7.158956605218937 0 0 0
239 1 0.07993001264394192 8.573897393101499 5.741772969792794 0 0 0
240 1 1.4934215636791288 9.992149310083297 7.159667811873955 0 0 0
241 1 2.902966025058122 8.573501352215112 5.7381215347935495 0 0 0
242 1 4.319169280574198 9.990766165648985 7.1518437759692395 0 0 0
243 1 5.709230514498447 8.570539681375578 5.714516118694029 0 0 0
244 1 7.119665143512781 10.002662647060365 7.11784792633538 0 0 0
245 1 8.555900510110726 8.556738949076468 5.7362191459376115 0 0 0
246 1 9.989449131451897 9.972208945643965 7.092554808383739 0 0 0
247 1 11.422035240907842 8.558166924208171 5.734367105323343 0 0 0
248 1 12.845021949978667 10.003851816476459 7.1305921006563056 0 0 0
249 1 14.26022341532949 8.573859520418994 5.724098838765169 0 0 0
250 1 15.683259211434365 9.977664200814047 7.133486842364969 0 0 0
251 1 17.08716479522092 8.567414412741847 5.7317701537049786 0 0 0
252 1 18.493831894909974 9.991189067218336 7.157667058740129 0 0 0
253 1 0.08156698464198159 11.409382243863526 5.742016614522527 0 0 0
254 1 1.4949411814223181 12.826344583844586 7.161380345209098 0 0 0
255 1 2.906731706865641 11.41104264647162 5.741838561292953 0 0 0
256 1 4.322979894814897 12.826699982857136 7.160146965657193 0 0 0
257 1 5.726195249087303 11.41875316519219 5.729692584283153 0 0 0
258 1 7.155746028869347 12.822438693090831 7.160430919997958 0 0 0
259 1 8.568494671019796 11.407256983334683 5.744997188283165 0 0 0
260 1 9.995930009068976 12.804787599500214 7.164329183140799 0 0 0
261 1 11.41460938803495 11.408267964428866 5.751139717680485 0 0 0
262 1 12.837483618621988 12.83057130227071 7.119367003837617 0 0 0
263 1 14.26244791757281 11.414278183008893 5.728493691264909 0 0 0
264 1 15.696281916835714 12.828517117284122 7.120274433856959 0 0 0
265 1 17.09223385175676 11.405413673528619 5.727855829400467 0 0 0
266 1 18.495975149577788 12.828011487690954 7.1559937238086215 0 0 0
267 1 0.08336745312156402 14.245058825572244 5.742482525723429 0 0 0
268 1 1.4967382662459572 15.660258461496932 7.161384958141502 0 0 0
269 1 2.910664557904733 14.243698124315388 5.745032802882168 0 0 0
270 1 4.325713644596926 15.661068786026195 7.159520241698284 0 0 0
271 1 5.743180748374781 14.241449910792515 5.7451875069708835 0 0 0
272 1 7.162308996172307 15.656638138258764 7.161651553051553 0 0 0
273 1 8.577781308424573 14.235355492597627 5.747502310725313 0 0 0
274 1 9.97835786256876 15.674231603674963 7.143532316053727 0 0 0
275 1 11.406655728601539 14.245594128710797 5.743491741739128 0 0 0
276 1 12.830246878593332 15.693011815225024 7.120643981652266 0 0 0
277 1 14.256308141018271 14.25436281136387 5.729119417284704 0 0 0
278 1 15.70428561900525 15.703716581485258 7.115149797028499 0 0 0
279 1 17.09549414807259 14.250996775622196 5.725023651651519 0 0 0
280 1 18.498097548654407 15.666900991789134 7.155075301247031 0 0 0
281 1 0.0848757230740526 17.07941544891051 5.742251361890325 0 0 0
282 1 1.4974021232218326 18.490975035089235 7.162432244924179 0 0 0
283 1 2.912623314984951 17.07616894936828 5.744865538961287 0 0 0
284 1 4.329574456928039 18.488808368582703 7.1635502422650115 0 0 0
285 1 5.745398371895271 17.07377708403498 5.746152866804119 0 0 0
286 1 7.160391636256915 18.490079166342028 7.1632964663104755 0 0 0
287 1 8.570590444545957 17.080428991739062 5.739559631962408 0 0 0
288 1 9.992060820464776 18.49189901336159 7.161432250816367 0 0 0
289 1 11.403181912071801 17.086586012757266 5.7333195694898516 0 0 0
290 1 12.8273852025387 18.494555304709102 7.1566326672711575 0 0 0
291 1 14.250226135964699 17.09398011575204 5.725325077544239 0 0 0
292 1 15.666543127031698 18.497447402032506 7.154558630884019 0 0 0
293 1 17.096579266736654 17.09647381676077 5.724205157998603 0 0 0
294 1 18.497947973172295 18.496946111993246 7.159979624138797 0 0 0
295 1 0.08170719154185348 0.08002551638565827 8.578864612215199 0 0 0
296 1 1.4937777718308172 1.4928307561375083 9.99608043026776 0 0 0
297 1 2.912032700127239 19.904555459264344 8.579496677227908 0 -1 0
298 1 4.3263229337952405 1.4918390277379774 9.995844128329384 0 0 0
299 1 5.744896721408137 19.904542978037526 8.579902052096262 0 -1 0
300 1 7.160720029695832 1.4945436165009243 9.99425102525494 0 0 0
301 1 8.5774368938014 19.905688354616267 8.57914167763189 0 -1 0
302 1 9.993617032193267 1.4962254629913323 9.992019979470756 0 0 0
303 1 11.410637245235115 19.906351622596652 8.577399881763444 0 -1 0
304 1 12.825776188380239 1.4962757611354265 9.992854628412877 0 0 0
305 1 14.244316880856285 0.08035322720757614 8.575715453536464 0 0 0
306 1 15.658308204900775 1.495284867620254 9.994913362203976 0 0 0
307 1 17.076745145589406 0.08090778233915681 8.578238613708603 0 0 0
308 1 18.491532215075296 1.4950995807729561 9.995732387569948 0 0 0
309 1 19.905306123283097 2.9094284696704364 8.579138469228317 -1 0 0
310 1 1.4905002935742275 4.324565340549396 9.995717077700535 0 0 0
311 1 2.9040973947089688 2.9034899463260433 8.578927570961005 0 0 0
312 1 4.313008512418662 4.313866345658504 9.997700075426641 0 0 0
313 1 5.738134827594176 2.905525894850757 8.577292451044325 0 0 0
314 1 7.153263415396202 4.325205772439997 9.992362185915328 0 0 0
315 1 8.571917523803233 2.9099518574619663 8.572927425679643 0 0 0
316 1 9.987983143289178 4.328784470308582 9.983627460660335 0 0 0
317 1 11.410661406419212 2.912109889090419 8.573668605233477 0 0 0
318 1 12.826454208229036 4.3300261155568 9.99123336842892 0 0 0
319 1 14.244606388549979 2.9101310321197538 8.576433614400138 0 0 0
320 1 15.662463649803108 4.324023501463536 9.99688555711449 0 0 0
321 1 17.077148372682984 2.908739538903811 8.57907370374377 0 0 0
322 1 18.489268308412953 4.3277222222906415 9.99547886798133 0 0 0
323 1 19.90434994693649 5.742482914513754 8.57845096643344 -1 0 0
324 1 1.4918156500605402 7.159335082240374 9.994268558351713 0 0 0
325 1 2.9022552163241073 5.736466144550133 8.576550838920081 0 0 0
326 1 4.319339745284854 7.150710442229496 9.99304197726352 0 0 0
327 1 5.708847365544982 5.7120106714429975 8.573353335869445 0 0 0
328 1 7.121585392410357 7.120885664041513 10.007901325697246 0 0 0
329 1 8.547776662363972 5.719898661556156 8.54842021643912 0 0 0
330 1 9.967031217969401 7.116362448733967 9.936294441381177 0 0 0
331 1 11.420640780370096 5.729494089805009 8.557043123654369 0 0 0
332 1 12.845547924656724 7.140222761916128 9.989620048011854 0 0 0
333 1 14.26117158659119 5.727901146435594 8.572213659286701 0 0 0
334 1 15.65229161931962 7.1651309399859455 9.995753999908557 0 0 0
335 1 17.074578693553114 5.743821502174839 8.578131147775196 0 0 0
336 1 18.487964898711674 7.161709534858424 9.994953125268264 0 0 0
337 1 19.904913379040337 8.5760154430573 8.577229507668328 -1 0 0
338 1 1.4932958308001112 9.992955753973407 9.993454334839678 0 0 0
339 1 2.904837636981535 8.571283963063355 8.573158479918831 0 0 0
340 1 4.325761995941591 9.98566987732783 9.988533127772333 0 0 0
341 1 5.703030223780544 8.547934300499525 8.549276951110933 0 0 0
342 1 7.130547982845691 9.941249481648674 9.939523779782025 0 0 0
343 1 8.361897494868984 8.411034208370543 8.419410787554952 0 0 0
344 1 9.882997701992505 9.626700276986456 9.463201836817088 0 0 0
345 1 11.544518334977779 8.465122562865306 8.469662590261086 0 0 0
346 1 12.784072390529381 10.01291677129372 9.991412969256743 0 0 0
347 1 14.252216274370365 8.57678483847604 8.567093385176218 0 0 0
348 1 15.656961617098702 9.992613523722389 9.98632275227702 0 0 0
349 1 17.076953328415932 8.573336602337344 8.574316857819285 0 0 0
350 1 18.48619265680398 9.996219693942944 9.993215902162135 0 0 0
351 1 19.905828385700048 11.410060620604163 8.577117256503488 -1 0 0
352 1 1.494749973840602 12.825799813487581 9.994264758134278 0 0 0
353 1 2.9097777844541617 11.407692049806167 8.577301727229768 0 0 0
354 1 4.328587879310109 12.824825109655736 9.993981551820232 0 0 0
355 1 5.733702228929278 11.405380011099746 8.571532016351135 0 0 0
356 1 7.138033527354403 12.847035785033443 9.980117479296291 0 0 0
357 1 8.560819850109327 11.408156188719257 8.598638064246591 0 0 0
358 1 10.025829776639899 12.828825871364213 9.998534135800071 0 0 0
359 1 11.41355758638764 11.403195823329723 8.63583039587841 0 0 0
360 1 12.991566510115746 12.989194831290956 9.647336173808037 0 0 0
361 1 14.29993092593473 11.379000979641692 8.526278997488449 0 0 0
362 1 15.668351285105718 12.849631812119569 9.965261672734965 0 0 0
363 1 17.077888205691657 11.411311411313505 8.570882211359208 0 0 0
364 1 18.48870759485554 12.830430255853953 9.991050011030133 0 0 0
365 1 0.08036197949143516 14.24457131477894 8.57652849989767 0 0 0
366 1 1.495558738722324 15.658350527038255 9.995307052378967 0 0 0
367 1 2.9107366930174736 14.24252524725014 8.578449175276095 0 0 0
368 1 4.32684513841573 15.659239012004635 9.994324351729295 0 0 0
369 1 5.736943740408243 14.248764520672049 8.57036259963013 0 0 0
370 1 7.168100935431606 15.650242646559327 9.999416224030623 0 0 0
371 1 8.581714897703309 14.235639240530013 8.57551925238158 0 0 0
372 1 9.994951308149862 15.654466645217669 9.994550629784559 0 0 0
373 1 11.386007882625599 14.29472799897646 8.525980817015377 0 0 0
374 1 12.851916854906095 15.666978250248425 9.966120824758885 0 0 0
375 1 14.345521943106585 14.343361550440449 8.469696539587005 0 0 0
376 1 15.674129452313302 15.674107404870073 10.003597668034901 0 0 0
377 1 17.086397043606333 14.25611194701809 8.563851558560868 0 0 0
378 1 18.492351254000425 15.660817693080567 9.995149466432478 0 0 0
379 1 0.08189492398297067 17.076385153012303 8.578687834840325 0 0 0
380 1 1.4968171813700477 18.490873250798508 9.995382772314391 0 0 0
381 1 2.912161387584258 17.074656233282923 8.578914050890944 0 0 0
382 1 4.329681070601378 18.488878009303207 9.995511240221392 0 0 0
383 1 5.747508826808473 17.071272754671163 8.580681074967845 0 0 0
384 1 7.16326259814133 18.487709839410712 9.996511085505432 0 0 0
385 1 8.57670072414439 17.073549103382327 8.579527532458467 0 0 0
386 1 9.996982676177735 18.48608710016164 9.995130463487069 0 0 0
387 1 11.412372222436867 17.07497942959757 8.573668289815515 0 0 0
388 1 12.830441442246686 18.488846755900887 9.991157819806423 0 0 0
389 1 14.256252426508128 17.085686959180947 8.56363157785603 0 0 0
390 1 15.66050125185251 18.49296949267599 9.994575032602572 0 0 0
391 1 17.086962474969873 17.08700904002542 8.577492864765693 0 0 0
392 1 18.496940560346474 18.4968398302414 9.99478803753718 0 0 0
393 1 0.08144184045396267 0.08103466930977911 11.411763175981957 0 0 0
394 1 1.4943087196050195 1.4942644535849674 12.82819319876339 0 0 0
395 1 2.9123247360679203 19.905368657495707 11.411628330167714 0 -1 0
396 1 4.327842218794952 1.493255605713156 12.827114386432758 0 0 0
397 1 5.745968771713867 19.905431647971007 11.41067071692182 0 -1 0
398 1 7.16259853743458 1.495476899081484 12.824704238725428 0 0 0
399 1 8.579971375592558 19.905439375007546 11.409508154482468 0 -1 0
400 1 9.993655758476446 1.4969351644042441 12.82401408117294 0 0 0
401 1 11.41176833587649 19.905748019672018 11.409659484483393 0 -1 0
402 1 12.824312152592105 1.4971868757184155 12.825754636528176 0 0 0
403 1 14.241535417399422 19.907185970295863 11.410673443807925 0 -1 0
404 1 15.657034079359953 1.4966325126987199 12.826865930961981 0 0 0
405 1 17.07554390733911 0.08177140122284493 11.411332431423531 0 0 0
406 1 18.490949411094093 1.4964596354648942 12.827746266686805 0 0 0
407 1 19.904781784133142 2.911018858860323 11.411939841784168 -1 0 0
408 1 1.4910786797673043 4.326546264962677 12.82758560397766 0 0 0
409 1 2.905564305744413 2.9056601739563184 11.413501963069569 0 0 0
410 1 4.317829602876469 4.3188519449144165 12.830972734906627 0 0 0
411 1 5.741919862498423 2.9081871772530596 11.411457717431691 0 0 0
412 1 7.159828611547336 4.328724796364508 12.824960758890873 0 0 0
413 1 8.576614377649248 2.91439202532106 11.407164629858686 0 0 0
414 1 9.988440741187121 4.334077401698243 12.82407592419593 0 0 0
415 1 11.407267428371885 2.9153600147092744 11.40709411481326 0 0 0
416 1 12.822265661725456 4.332642817283183 12.824462773154169 0 0 0
417 1 14.240401003758771 2.912641045942521 11.410283551439198 0 0 0
418 1 15.658526367674938 4.327989840941087 12.827323870621845 0 0 0
419 1 17.07496034326241 2.9106741751963976 11.41224187444899 0 0 0
420 1 18.48820555724832 4.32961443916173 12.826726017408513 0 0 0
421 1 19.90370493938343 5.744874518726376 11.410870580989751 -1 0 0
422 1 1.491634155313549 7.161603536577171 12.826196093045976 0 0 0
423 1 2.9042481510273244 5.740339823876428 11.412111664123008 0 0 0
424 1 4.320809189459484 7.157321429267416 12.827959104394287 0 0 0
425 1 5.721386295801259 5.723898086634488 11.417847816483512 0 0 0
426 1 7.149512913521895 7.155576828585018 12.813820119930789 0 0 0
427 1 8.573351606599491 5.75035654776592 11.404094059654694 0 0 0
428 1 9.968275049749868 7.165381610425887 12.838323495929108 0 0 0
429 1 11.400230328294361 5.742459377461668 11.404261105262467 0 0 0
430 1 12.82848827228592 7.161924521963704 12.824591254901508 0 0 0
431 1 14.245831845516289 5.741348438996882 11.41323199485074 0 0 0
432 1 15.650818550392083 7.169449733514928 12.822369459365072 0 0 0
433 1 17.07196886102762 5.7469804634538395 11.410756376632245 0 0 0
434 1 18.487043825168847 7.163951912063378 12.824757451785137 0 0 0
435 1 19.903409536400062 8.579640209144143 11.409815297645695 -1 0 0
436 1 1.493315318085612 9.994268154270978 12.82685924578597 0 0 0
437 1 2.90864978898318 8.575976151584014 11.409713738235522 0 0 0
438 1 4.326446679512617 9.988893040423457 12.831729609595186 0 0 0
439 1 5.734564373656183 8.569922583520544 11.40871399687546 0 0 0
440 1 7.1335591793191195 9.962389489350965 12.868722235566834 0 0 0
441 1 8.606329729452392 8.624346721408129 11.393116130055848 0 0 0
442 1 9.871305717884937 9.880152068342152 13.176237366914858 0 0 0